MPI startup(): I_MPI_ADI3_DISABLE environment variable is not supported.
MPI startup(): To check the list of supported variables, use the impi_info utility or refer to https://software.intel.com/en-us/mpi-library/documentation/get-started.

     Program PHONON v.7.4.1 starts on 11Mar2026 at 11:13:29 

     This program is part of the open-source Quantum ESPRESSO suite
     for quantum simulation of materials; please cite
         "P. Giannozzi et al., J. Phys.:Condens. Matter 21 395502 (2009);
         "P. Giannozzi et al., J. Phys.:Condens. Matter 29 465901 (2017);
         "P. Giannozzi et al., J. Chem. Phys. 152 154105 (2020);
          URL http://www.quantum-espresso.org", 
     in publications or presentations arising from this work. More details at
     http://www.quantum-espresso.org/quote

     Parallel version (MPI), running on    64 processors

     MPI processes distributed on     1 nodes
     1019147 MiB available memory on the printing compute node when the environment starts
 
     Waiting for input...
     Reading input from standard input
      Title line not specified: using 'default'.

     Reading xml data from directory:

     temp/hex_ge.save/
 
     K-points division:     npool     =       2
     R & G space division:  proc/nbgrp/npool/nimage =      32
     Subspace diagonalization in iterative solution of the eigenvalue problem:
     a serial algorithm will be used


     IMPORTANT: XC functional enforced from input :
     Exchange-correlation= PBE
                           (   1   4   3   4   0   0   0)
     Any further DFT definition will be discarded
     Please, verify this is what you really want

 
     Parallelization info
     --------------------
     sticks:   dense  smooth     PW     G-vecs:    dense   smooth      PW
     Min          29      29      8                 1231     1231     188
     Max          30      30      9                 1240     1240     193
     Sum         955     955    283                39583    39583    6087
 
     Using Slab Decomposition
 
     Reading collected, re-writing distributed wavefunctions in temp/


     Dynamical matrices for ( 2, 2, 2)  uniform grid of q-points
     (   4 q-points):
       N         xq(1)         xq(2)         xq(3) 
       1   0.000000000   0.000000000   0.000000000
       2   0.000000000   0.000000000  -0.303155055
       3   0.000000000  -0.577350269   0.000000000
       4   0.000000000  -0.577350269  -0.303155055

     Number and degeneracy of irreps per q-point
       N         xq(1)         xq(2)         xq(3)   N irreps
       1   0.000000000   0.000000000   0.000000000       8
        1   1   2   2   1   1   2   2
       2   0.000000000   0.000000000  -0.303155055       4
        2   2   4   4
       3   0.000000000  -0.577350269   0.000000000      12
     No degeneracy
       4   0.000000000  -0.577350269  -0.303155055       6
        2   2   2   2   2   2

     Calculation of q =    0.0000000   0.0000000   0.0000000

     default                                                                    

     bravais-lattice index     =            0
     lattice parameter (alat)  =       7.6109  a.u.
     unit-cell volume          =     629.7232 (a.u.)^3
     number of atoms/cell      =            4
     number of atomic types    =            1
     kinetic-energy cut-off    =      60.0000  Ry
     charge density cut-off    =     240.0000  Ry
     convergence threshold     =      1.0E-12
     beta                      =       0.7000
     number of iterations used =            4
     Exchange-correlation= PBE
                           (   1   4   3   4   0   0   0)


     celldm(1)=    7.61093  celldm(2)=    0.00000  celldm(3)=    0.00000
     celldm(4)=    0.00000  celldm(5)=    0.00000  celldm(6)=    0.00000

     crystal axes: (cart. coord. in units of alat)
               a(1) = (  1.0000  0.0000  0.0000 )  
               a(2) = ( -0.5000  0.8660  0.0000 )  
               a(3) = (  0.0000  0.0000  1.6493 )  

     reciprocal axes: (cart. coord. in units 2 pi/alat)
               b(1) = (  1.0000  0.5774  0.0000 )  
               b(2) = (  0.0000  1.1547  0.0000 )  
               b(3) = (  0.0000  0.0000  0.6063 )  


     Atoms inside the unit cell: 

     Cartesian axes

     site n.  atom      mass           positions (alat units)
        1  Ge     72.6400   tau(    1) = (   -0.00000    0.57735    0.92854  )
        2  Ge     72.6400   tau(    2) = (    0.50000    0.28868    0.72078  )
        3  Ge     72.6400   tau(    3) = (    0.50000    0.28868    0.10388  )
        4  Ge     72.6400   tau(    4) = (    0.00000    0.57735    1.54544  )

     Computing dynamical matrix for 
                    q = (   0.0000000   0.0000000   0.0000000 )
 
     25 Sym.Ops. (with q -> -q+G )


     G cutoff =  352.1498  (   1240 G-vectors)     FFT grid: ( 40, 40, 64)

     number of k points=    30  Marzari-Vanderbilt smearing, width (Ry)=  0.0100

     PseudoPot. # 1 for Ge read from file:
     pseudo/Ge_ONCV_PBE-1.0.upf
     MD5 check sum: 39f69ca9d3fedd83738352a2cbce5cbd
     Pseudo is Norm-conserving, Zval = 14.0
     Generated using ONCVPSP code by D. R. Hamann
     Using radial grid of  602 points,  6 beta functions with: 
                l(1) =   0
                l(2) =   0
                l(3) =   1
                l(4) =   1
                l(5) =   2
                l(6) =   2

     Mode symmetry, D_6h(6/mmm) point group:


     Atomic displacements:
     There are    8 irreducible representations

     Representation     1      1 modes -  To be done

     Representation     2      1 modes -  To be done

     Representation     3      2 modes -  To be done

     Representation     4      2 modes -  To be done

     Representation     5      1 modes -  To be done

     Representation     6      1 modes -  To be done

     Representation     7      2 modes -  To be done

     Representation     8      2 modes -  To be done



     Alpha used in Ewald sum =   2.2000
     PHONON       :      0.24s CPU      0.28s WALL



     Representation #   1 mode #   1

     Self-consistent Calculation
 
     Pert. #  1: Fermi energy shift (Ry) =    -3.4877E-01    -1.3235E-23

      iter #   1 total cpu time :     0.7 secs   av.it.:   9.4
      thresh= 1.000E-02 alpha_mix =  0.700 |ddv_scf|^2 =  1.446E-05
 
     Pert. #  1: Fermi energy shift (Ry) =     1.1887E-01    -8.2718E-25

      iter #   2 total cpu time :     1.2 secs   av.it.:  14.4
      thresh= 3.802E-04 alpha_mix =  0.700 |ddv_scf|^2 =  5.374E-06
 
     Pert. #  1: Fermi energy shift (Ry) =    -5.5219E-02    -6.6174E-24

      iter #   3 total cpu time :     1.7 secs   av.it.:  13.8
      thresh= 2.318E-04 alpha_mix =  0.700 |ddv_scf|^2 =  2.535E-09
 
     Pert. #  1: Fermi energy shift (Ry) =    -5.1094E-02    -6.6174E-24

      iter #   4 total cpu time :     2.2 secs   av.it.:  13.6
      thresh= 5.035E-06 alpha_mix =  0.700 |ddv_scf|^2 =  5.128E-11
 
     Pert. #  1: Fermi energy shift (Ry) =    -5.1468E-02    -6.6174E-24

      iter #   5 total cpu time :     2.6 secs   av.it.:  12.9
      thresh= 7.161E-07 alpha_mix =  0.700 |ddv_scf|^2 =  1.149E-12
 
     Pert. #  1: Fermi energy shift (Ry) =    -5.1521E-02    -6.6174E-24

      iter #   6 total cpu time :     3.1 secs   av.it.:  13.7
      thresh= 1.072E-07 alpha_mix =  0.700 |ddv_scf|^2 =  1.847E-14

     End of self-consistent calculation

     Convergence has been achieved 


     Representation #   2 mode #   2

     Self-consistent Calculation
 
     Pert. #  1: Fermi energy shift (Ry) =     0.0000E+00     0.0000E+00

      iter #   1 total cpu time :     3.6 secs   av.it.:   9.1
      thresh= 1.000E-02 alpha_mix =  0.700 |ddv_scf|^2 =  2.730E-05
 
     Pert. #  1: Fermi energy shift (Ry) =     0.0000E+00     0.0000E+00

      iter #   2 total cpu time :     4.1 secs   av.it.:  13.8
      thresh= 5.225E-04 alpha_mix =  0.700 |ddv_scf|^2 =  3.033E-05
 
     Pert. #  1: Fermi energy shift (Ry) =     0.0000E+00     0.0000E+00

      iter #   3 total cpu time :     4.5 secs   av.it.:  12.0
      thresh= 5.507E-04 alpha_mix =  0.700 |ddv_scf|^2 =  1.525E-07
 
     Pert. #  1: Fermi energy shift (Ry) =     0.0000E+00     0.0000E+00

      iter #   4 total cpu time :     5.0 secs   av.it.:  13.5
      thresh= 3.905E-05 alpha_mix =  0.700 |ddv_scf|^2 =  1.364E-09
 
     Pert. #  1: Fermi energy shift (Ry) =     0.0000E+00     0.0000E+00

      iter #   5 total cpu time :     5.5 secs   av.it.:  13.5
      thresh= 3.693E-06 alpha_mix =  0.700 |ddv_scf|^2 =  9.213E-12
 
     Pert. #  1: Fermi energy shift (Ry) =     0.0000E+00     0.0000E+00

      iter #   6 total cpu time :     5.9 secs   av.it.:  12.4
      thresh= 3.035E-07 alpha_mix =  0.700 |ddv_scf|^2 =  3.475E-13

     End of self-consistent calculation

     Convergence has been achieved 


     Representation #   3 modes #   3   4

     Self-consistent Calculation
 
     Pert. #  1: Fermi energy shift (Ry) =     6.7763E-21     7.8366E-38
     Pert. #  2: Fermi energy shift (Ry) =    -5.6469E-22    -9.7958E-39

      iter #   1 total cpu time :     6.7 secs   av.it.:   9.8
      thresh= 1.000E-02 alpha_mix =  0.700 |ddv_scf|^2 =  3.432E-06
 
     Pert. #  1: Fermi energy shift (Ry) =    -1.2353E-21    -1.9592E-39
     Pert. #  2: Fermi energy shift (Ry) =    -1.7647E-23     9.7958E-40

      iter #   2 total cpu time :     7.8 secs   av.it.:  16.2
      thresh= 1.852E-04 alpha_mix =  0.700 |ddv_scf|^2 =  1.235E-06
 
     Pert. #  1: Fermi energy shift (Ry) =     1.1647E-21     1.1755E-38
     Pert. #  2: Fermi energy shift (Ry) =     3.5293E-23    -3.9183E-39

      iter #   3 total cpu time :     8.9 secs   av.it.:  15.4
      thresh= 1.111E-04 alpha_mix =  0.700 |ddv_scf|^2 =  6.320E-10
 
     Pert. #  1: Fermi energy shift (Ry) =     9.1762E-22     1.0714E-40
     Pert. #  2: Fermi energy shift (Ry) =    -1.7647E-22     3.8265E-41

      iter #   4 total cpu time :     9.9 secs   av.it.:  15.2
      thresh= 2.514E-06 alpha_mix =  0.700 |ddv_scf|^2 =  1.035E-11
 
     Pert. #  1: Fermi energy shift (Ry) =     7.7645E-22     6.1224E-41
     Pert. #  2: Fermi energy shift (Ry) =    -4.5881E-22     0.0000E+00

      iter #   5 total cpu time :    10.9 secs   av.it.:  14.5
      thresh= 3.218E-07 alpha_mix =  0.700 |ddv_scf|^2 =  2.030E-13

     End of self-consistent calculation

     Convergence has been achieved 


     Representation #   4 modes #   5   6

     Self-consistent Calculation
 
     Pert. #  1: Fermi energy shift (Ry) =     1.4456E-17     1.0041E-38
     Pert. #  2: Fermi energy shift (Ry) =     5.4933E-18     4.7754E-39

      iter #   1 total cpu time :    11.8 secs   av.it.:   9.9
      thresh= 1.000E-02 alpha_mix =  0.700 |ddv_scf|^2 =  5.122E-06
 
     Pert. #  1: Fermi energy shift (Ry) =     4.9150E-18     4.8979E-40
     Pert. #  2: Fermi energy shift (Ry) =    -3.6140E-19     3.4285E-39

      iter #   2 total cpu time :    12.8 secs   av.it.:  16.2
      thresh= 2.263E-04 alpha_mix =  0.700 |ddv_scf|^2 =  2.528E-06
 
     Pert. #  1: Fermi energy shift (Ry) =     8.6736E-18    -5.0203E-39
     Pert. #  2: Fermi energy shift (Ry) =     2.1684E-18    -2.3877E-39

      iter #   3 total cpu time :    13.9 secs   av.it.:  15.3
      thresh= 1.590E-04 alpha_mix =  0.700 |ddv_scf|^2 =  4.919E-10
 
     Pert. #  1: Fermi energy shift (Ry) =    -7.2280E-19    -1.8367E-40
     Pert. #  2: Fermi energy shift (Ry) =     9.7578E-19    -1.5306E-39

      iter #   4 total cpu time :    14.9 secs   av.it.:  15.2
      thresh= 2.218E-06 alpha_mix =  0.700 |ddv_scf|^2 =  1.572E-11
 
     Pert. #  1: Fermi energy shift (Ry) =     2.7466E-18    -1.8367E-40
     Pert. #  2: Fermi energy shift (Ry) =     1.8793E-18    -1.5306E-39

      iter #   5 total cpu time :    15.9 secs   av.it.:  14.2
      thresh= 3.965E-07 alpha_mix =  0.700 |ddv_scf|^2 =  3.237E-13

     End of self-consistent calculation

     Convergence has been achieved 


     Representation #   5 mode #   7

     Self-consistent Calculation
 
     Pert. #  1: Fermi energy shift (Ry) =     1.7647E-23     1.0031E-36

      iter #   1 total cpu time :    16.3 secs   av.it.:   9.1
      thresh= 1.000E-02 alpha_mix =  0.700 |ddv_scf|^2 =  9.477E-06
 
     Pert. #  1: Fermi energy shift (Ry) =     3.5293E-23     6.2693E-38

      iter #   2 total cpu time :    16.9 secs   av.it.:  14.3
      thresh= 3.078E-04 alpha_mix =  0.700 |ddv_scf|^2 =  3.295E-06
 
     Pert. #  1: Fermi energy shift (Ry) =     1.7647E-23    -3.1347E-38

      iter #   3 total cpu time :    17.3 secs   av.it.:  13.7
      thresh= 1.815E-04 alpha_mix =  0.700 |ddv_scf|^2 =  2.237E-09
 
     Pert. #  1: Fermi energy shift (Ry) =    -1.1029E-24     6.1224E-41

      iter #   4 total cpu time :    17.8 secs   av.it.:  13.6
      thresh= 4.729E-06 alpha_mix =  0.700 |ddv_scf|^2 =  4.934E-10
 
     Pert. #  1: Fermi energy shift (Ry) =     0.0000E+00    -1.2245E-40

      iter #   5 total cpu time :    18.3 secs   av.it.:  13.2
      thresh= 2.221E-06 alpha_mix =  0.700 |ddv_scf|^2 =  9.161E-12
 
     Pert. #  1: Fermi energy shift (Ry) =     5.5145E-25    -3.8265E-42

      iter #   6 total cpu time :    18.8 secs   av.it.:  13.5
      thresh= 3.027E-07 alpha_mix =  0.700 |ddv_scf|^2 =  1.538E-13

     End of self-consistent calculation

     Convergence has been achieved 


     Representation #   6 mode #   8

     Self-consistent Calculation
 
     Pert. #  1: Fermi energy shift (Ry) =     0.0000E+00     0.0000E+00

      iter #   1 total cpu time :    19.2 secs   av.it.:   9.9
      thresh= 1.000E-02 alpha_mix =  0.700 |ddv_scf|^2 =  3.073E-04
 
     Pert. #  1: Fermi energy shift (Ry) =     0.0000E+00     0.0000E+00

      iter #   2 total cpu time :    19.7 secs   av.it.:  13.5
      thresh= 1.753E-03 alpha_mix =  0.700 |ddv_scf|^2 =  1.205E-03
 
     Pert. #  1: Fermi energy shift (Ry) =     0.0000E+00     0.0000E+00

      iter #   3 total cpu time :    20.1 secs   av.it.:  11.6
      thresh= 3.471E-03 alpha_mix =  0.700 |ddv_scf|^2 =  4.622E-07
 
     Pert. #  1: Fermi energy shift (Ry) =     0.0000E+00     0.0000E+00

      iter #   4 total cpu time :    20.6 secs   av.it.:  13.7
      thresh= 6.799E-05 alpha_mix =  0.700 |ddv_scf|^2 =  2.594E-08
 
     Pert. #  1: Fermi energy shift (Ry) =     0.0000E+00     0.0000E+00

      iter #   5 total cpu time :    21.1 secs   av.it.:  12.0
      thresh= 1.611E-05 alpha_mix =  0.700 |ddv_scf|^2 =  1.131E-10
 
     Pert. #  1: Fermi energy shift (Ry) =     0.0000E+00     0.0000E+00

      iter #   6 total cpu time :    21.6 secs   av.it.:  13.3
      thresh= 1.063E-06 alpha_mix =  0.700 |ddv_scf|^2 =  3.938E-11
 
     Pert. #  1: Fermi energy shift (Ry) =     0.0000E+00     0.0000E+00

      iter #   7 total cpu time :    22.0 secs   av.it.:  12.1
      thresh= 6.275E-07 alpha_mix =  0.700 |ddv_scf|^2 =  8.797E-14

     End of self-consistent calculation

     Convergence has been achieved 


     Representation #   7 modes #   9  10

     Self-consistent Calculation
 
     Pert. #  1: Fermi energy shift (Ry) =    -7.9409E-23     2.0062E-36
     Pert. #  2: Fermi energy shift (Ry) =    -2.4264E-23    -1.0031E-36

      iter #   1 total cpu time :    22.8 secs   av.it.:   9.5
      thresh= 1.000E-02 alpha_mix =  0.700 |ddv_scf|^2 =  2.503E-06
 
     Pert. #  1: Fermi energy shift (Ry) =    -1.1029E-24    -1.2539E-37
     Pert. #  2: Fermi energy shift (Ry) =     1.1029E-24     5.6424E-37

      iter #   2 total cpu time :    23.9 secs   av.it.:  16.2
      thresh= 1.582E-04 alpha_mix =  0.700 |ddv_scf|^2 =  9.008E-07
 
     Pert. #  1: Fermi energy shift (Ry) =     0.0000E+00    -6.2693E-38
     Pert. #  2: Fermi energy shift (Ry) =     5.5145E-24     1.5673E-37

      iter #   3 total cpu time :    25.0 secs   av.it.:  15.4
      thresh= 9.491E-05 alpha_mix =  0.700 |ddv_scf|^2 =  4.053E-10
 
     Pert. #  1: Fermi energy shift (Ry) =     5.5145E-25     1.9592E-39
     Pert. #  2: Fermi energy shift (Ry) =    -4.1359E-25    -1.9592E-39

      iter #   4 total cpu time :    26.0 secs   av.it.:  14.4
      thresh= 2.013E-06 alpha_mix =  0.700 |ddv_scf|^2 =  6.832E-12
 
     Pert. #  1: Fermi energy shift (Ry) =     0.0000E+00     0.0000E+00
     Pert. #  2: Fermi energy shift (Ry) =    -9.6504E-25     3.6734E-40

      iter #   5 total cpu time :    27.0 secs   av.it.:  14.3
      thresh= 2.614E-07 alpha_mix =  0.700 |ddv_scf|^2 =  2.365E-13

     End of self-consistent calculation

     Convergence has been achieved 


     Representation #   8 modes #  11  12

     Self-consistent Calculation
 
     Pert. #  1: Fermi energy shift (Ry) =    -2.1176E-22    -1.5046E-36
     Pert. #  2: Fermi energy shift (Ry) =    -1.4117E-22     3.7616E-37

      iter #   1 total cpu time :    27.8 secs   av.it.:   9.4
      thresh= 1.000E-02 alpha_mix =  0.700 |ddv_scf|^2 =  1.729E-06
 
     Pert. #  1: Fermi energy shift (Ry) =    -1.1029E-23    -7.8366E-39
     Pert. #  2: Fermi energy shift (Ry) =     1.2132E-23     7.8366E-39

      iter #   2 total cpu time :    28.9 secs   av.it.:  16.2
      thresh= 1.315E-04 alpha_mix =  0.700 |ddv_scf|^2 =  4.873E-07
 
     Pert. #  1: Fermi energy shift (Ry) =    -2.2058E-23    -5.8775E-39
     Pert. #  2: Fermi energy shift (Ry) =     8.8233E-24    -4.8979E-40

      iter #   3 total cpu time :    29.9 secs   av.it.:  15.6
      thresh= 6.981E-05 alpha_mix =  0.700 |ddv_scf|^2 =  4.336E-10
 
     Pert. #  1: Fermi energy shift (Ry) =    -6.8932E-25    -1.8367E-40
     Pert. #  2: Fermi energy shift (Ry) =     5.5145E-25    -3.0612E-40

      iter #   4 total cpu time :    31.0 secs   av.it.:  14.7
      thresh= 2.082E-06 alpha_mix =  0.700 |ddv_scf|^2 =  5.235E-12
 
     Pert. #  1: Fermi energy shift (Ry) =     5.5145E-25     1.5306E-40
     Pert. #  2: Fermi energy shift (Ry) =     2.0680E-25    -1.5306E-40

      iter #   5 total cpu time :    32.0 secs   av.it.:  14.4
      thresh= 2.288E-07 alpha_mix =  0.700 |ddv_scf|^2 =  1.675E-13

     End of self-consistent calculation

     Convergence has been achieved 
 
     Number of q in the star =    1
     List of q in the star:
          1   0.000000000   0.000000000   0.000000000

     Diagonalizing the dynamical matrix

     q = (    0.000000000   0.000000000   0.000000000 ) 

 **************************************************************************
     freq (    1) =       1.748256 [THz] =      58.315532 [cm-1]
     freq (    2) =       1.748256 [THz] =      58.315532 [cm-1]
     freq (    3) =       1.849392 [THz] =      61.689071 [cm-1]
     freq (    4) =       2.273817 [THz] =      75.846359 [cm-1]
     freq (    5) =       2.273817 [THz] =      75.846359 [cm-1]
     freq (    6) =       6.626309 [THz] =     221.029891 [cm-1]
     freq (    7) =       7.183951 [THz] =     239.630811 [cm-1]
     freq (    8) =       8.314192 [THz] =     277.331607 [cm-1]
     freq (    9) =       8.314192 [THz] =     277.331607 [cm-1]
     freq (   10) =       8.443796 [THz] =     281.654722 [cm-1]
     freq (   11) =       8.689324 [THz] =     289.844660 [cm-1]
     freq (   12) =       8.689324 [THz] =     289.844660 [cm-1]
 **************************************************************************

     Mode symmetry, D_6h(6/mmm) point group:

     freq (   1-   2) =         58.3  [cm-1]   --> E_1u            I  
     freq (   3-   3) =         61.7  [cm-1]   --> A_2u            I  
     freq (   4-   5) =         75.8  [cm-1]   --> E_2u               
     freq (   6-   6) =        221.0  [cm-1]   --> B_1g               
     freq (   7-   7) =        239.6  [cm-1]   --> B_2u               
     freq (   8-   9) =        277.3  [cm-1]   --> E_2g            R  
     freq (  10-  10) =        281.7  [cm-1]   --> A_1g            R  
     freq (  11-  12) =        289.8  [cm-1]   --> E_1g            R  
 
     Number of q in the star =    1
     List of q in the star:
          1   0.000000000   0.000000000   0.000000000
       Writing drho for q = (  0.000000  0.000000  0.000000) on file "drho.0_0_0"

     Calculation of q =    0.0000000   0.0000000  -0.3031551
 
     Parallelization info
     --------------------
     sticks:   dense  smooth     PW     G-vecs:    dense   smooth      PW
     Min          29      29      8                 1231     1231     196
     Max          30      30      9                 1240     1240     203
     Sum         955     955    283                39583    39583    6447
 
     Using Slab Decomposition
 

     Title: 
     default                                                                    


     bravais-lattice index     =            0
     lattice parameter (alat)  =       7.6109  a.u.
     unit-cell volume          =     629.7232 (a.u.)^3
     number of atoms/cell      =            4
     number of atomic types    =            1
     number of electrons       =        56.00
     number of Kohn-Sham states=           34
     kinetic-energy cutoff     =      60.0000  Ry
     charge density cutoff     =     240.0000  Ry
     Exchange-correlation= PBE
                           (   1   4   3   4   0   0   0)

     celldm(1)=   7.610934  celldm(2)=   0.000000  celldm(3)=   0.000000
     celldm(4)=   0.000000  celldm(5)=   0.000000  celldm(6)=   0.000000

     crystal axes: (cart. coord. in units of alat)
               a(1) = (   1.000000   0.000000   0.000000 )  
               a(2) = (  -0.500000   0.866025   0.000000 )  
               a(3) = (   0.000000   0.000000   1.649321 )  

     reciprocal axes: (cart. coord. in units 2 pi/alat)
               b(1) = (  1.000000  0.577350  0.000000 )  
               b(2) = (  0.000000  1.154701  0.000000 )  
               b(3) = (  0.000000  0.000000  0.606310 )  


     PseudoPot. # 1 for Ge read from file:
     pseudo/Ge_ONCV_PBE-1.0.upf
     MD5 check sum: 39f69ca9d3fedd83738352a2cbce5cbd
     Pseudo is Norm-conserving, Zval = 14.0
     Generated using ONCVPSP code by D. R. Hamann
     Using radial grid of  602 points,  6 beta functions with: 
                l(1) =   0
                l(2) =   0
                l(3) =   1
                l(4) =   1
                l(5) =   2
                l(6) =   2

     atomic species   valence    mass     pseudopotential
     Ge               14.00    72.64000     Ge( 1.00)

     24 Sym. Ops., with inversion, found



   Cartesian axes

     site n.     atom                  positions (alat units)
         1        Ge     tau(   1) = (  -0.0000000   0.5773503   0.9285368  )
         2        Ge     tau(   2) = (   0.5000000   0.2886751   0.7207842  )
         3        Ge     tau(   3) = (   0.5000000   0.2886751   0.1038763  )
         4        Ge     tau(   4) = (   0.0000000   0.5773503   1.5454447  )

     number of k points=    60  Marzari-Vanderbilt smearing, width (Ry)=  0.0100
                       cart. coord. in units 2pi/alat
        k(    1) = (   0.0000000   0.0000000   0.0000000), wk =   0.0078125
        k(    2) = (   0.0000000   0.0000000  -0.3031551), wk =   0.0000000
        k(    3) = (   0.0000000   0.0000000   0.1515775), wk =   0.0156250
        k(    4) = (   0.0000000   0.0000000  -0.1515775), wk =   0.0000000
        k(    5) = (   0.0000000   0.0000000  -0.3031551), wk =   0.0078125
        k(    6) = (   0.0000000   0.0000000  -0.6063101), wk =   0.0000000
        k(    7) = (   0.0000000   0.1443376   0.0000000), wk =   0.0468750
        k(    8) = (   0.0000000   0.1443376  -0.3031551), wk =   0.0000000
        k(    9) = (   0.0000000   0.1443376   0.1515775), wk =   0.0937500
        k(   10) = (   0.0000000   0.1443376  -0.1515775), wk =   0.0000000
        k(   11) = (   0.0000000   0.1443376  -0.3031551), wk =   0.0468750
        k(   12) = (   0.0000000   0.1443376  -0.6063101), wk =   0.0000000
        k(   13) = (   0.0000000   0.2886751   0.0000000), wk =   0.0468750
        k(   14) = (   0.0000000   0.2886751  -0.3031551), wk =   0.0000000
        k(   15) = (   0.0000000   0.2886751   0.1515775), wk =   0.0937500
        k(   16) = (   0.0000000   0.2886751  -0.1515775), wk =   0.0000000
        k(   17) = (   0.0000000   0.2886751  -0.3031551), wk =   0.0468750
        k(   18) = (   0.0000000   0.2886751  -0.6063101), wk =   0.0000000
        k(   19) = (   0.0000000   0.4330127   0.0000000), wk =   0.0468750
        k(   20) = (   0.0000000   0.4330127  -0.3031551), wk =   0.0000000
        k(   21) = (   0.0000000   0.4330127   0.1515775), wk =   0.0937500
        k(   22) = (   0.0000000   0.4330127  -0.1515775), wk =   0.0000000
        k(   23) = (   0.0000000   0.4330127  -0.3031551), wk =   0.0468750
        k(   24) = (   0.0000000   0.4330127  -0.6063101), wk =   0.0000000
        k(   25) = (   0.0000000  -0.5773503   0.0000000), wk =   0.0234375
        k(   26) = (   0.0000000  -0.5773503  -0.3031551), wk =   0.0000000
        k(   27) = (   0.0000000  -0.5773503   0.1515775), wk =   0.0468750
        k(   28) = (   0.0000000  -0.5773503  -0.1515775), wk =   0.0000000
        k(   29) = (   0.0000000  -0.5773503  -0.3031551), wk =   0.0234375
        k(   30) = (   0.0000000  -0.5773503  -0.6063101), wk =   0.0000000
        k(   31) = (   0.1250000   0.2165064   0.0000000), wk =   0.0468750
        k(   32) = (   0.1250000   0.2165064  -0.3031551), wk =   0.0000000
        k(   33) = (   0.1250000   0.2165064   0.1515775), wk =   0.0937500
        k(   34) = (   0.1250000   0.2165064  -0.1515775), wk =   0.0000000
        k(   35) = (   0.1250000   0.2165064  -0.3031551), wk =   0.0468750
        k(   36) = (   0.1250000   0.2165064  -0.6063101), wk =   0.0000000
        k(   37) = (   0.1250000   0.3608439   0.0000000), wk =   0.0937500
        k(   38) = (   0.1250000   0.3608439  -0.3031551), wk =   0.0000000
        k(   39) = (   0.1250000   0.3608439   0.1515775), wk =   0.1875000
        k(   40) = (   0.1250000   0.3608439  -0.1515775), wk =   0.0000000
        k(   41) = (   0.1250000   0.3608439  -0.3031551), wk =   0.0937500
        k(   42) = (   0.1250000   0.3608439  -0.6063101), wk =   0.0000000
        k(   43) = (   0.1250000   0.5051815   0.0000000), wk =   0.0937500
        k(   44) = (   0.1250000   0.5051815  -0.3031551), wk =   0.0000000
        k(   45) = (   0.1250000   0.5051815   0.1515775), wk =   0.1875000
        k(   46) = (   0.1250000   0.5051815  -0.1515775), wk =   0.0000000
        k(   47) = (   0.1250000   0.5051815  -0.3031551), wk =   0.0937500
        k(   48) = (   0.1250000   0.5051815  -0.6063101), wk =   0.0000000
        k(   49) = (   0.2500000   0.4330127   0.0000000), wk =   0.0468750
        k(   50) = (   0.2500000   0.4330127  -0.3031551), wk =   0.0000000
        k(   51) = (   0.2500000   0.4330127   0.1515775), wk =   0.0937500
        k(   52) = (   0.2500000   0.4330127  -0.1515775), wk =   0.0000000
        k(   53) = (   0.2500000   0.4330127  -0.3031551), wk =   0.0468750
        k(   54) = (   0.2500000   0.4330127  -0.6063101), wk =   0.0000000
        k(   55) = (   0.2500000   0.5773503   0.0000000), wk =   0.0468750
        k(   56) = (   0.2500000   0.5773503  -0.3031551), wk =   0.0000000
        k(   57) = (   0.2500000   0.5773503   0.1515775), wk =   0.0937500
        k(   58) = (   0.2500000   0.5773503  -0.1515775), wk =   0.0000000
        k(   59) = (   0.2500000   0.5773503  -0.3031551), wk =   0.0468750
        k(   60) = (   0.2500000   0.5773503  -0.6063101), wk =   0.0000000

     Dense  grid:    39583 G-vectors     FFT dimensions: (  40,  40,  64)

     Estimated max dynamical RAM per process >       3.43 MB

     Estimated total dynamical RAM >     219.55 MB

     The potential is recalculated from file :
     temp/_ph0/hex_ge.save/charge-density

     Starting wfcs are    0 atomic +   34 random wfcs

     Band Structure Calculation
     Davidson diagonalization with overlap

     ethr =  1.79E-11,  avg # of iterations = 25.5

     total cpu time spent up to now is        2.9 secs

     End of band structure calculation

          k = 0.0000 0.0000 0.0000 (  4951 PWs)   bands (ev):

   -14.2429 -14.2429 -14.2089 -14.2068 -14.2068 -14.1963 -14.1753 -14.1753
   -14.1260 -14.1260 -14.0105 -14.0105 -14.0034 -13.9885 -13.9841 -13.9841
   -13.9623 -13.9623 -13.9394 -13.9394  -1.9307   0.0628   3.1654   9.2325
     9.2325  10.4891  10.5189  10.5463  10.7942  10.7942  12.9451  12.9451
    13.4303  15.1943

          k = 0.0000 0.0000-0.3032 (  4938 PWs)   bands (ev):

   -14.2281 -14.2281 -14.2281 -14.2281 -14.2014 -14.2014 -14.1496 -14.1496
   -14.1496 -14.1496 -13.9971 -13.9971 -13.9950 -13.9950 -13.9950 -13.9950
   -13.9509 -13.9509 -13.9509 -13.9509  -1.2157  -1.2157   5.9014   5.9014
     9.8431   9.8431   9.8431   9.8431  11.3051  11.3051  14.0320  14.0320
    14.0320  14.0320

          k = 0.0000 0.0000 0.1516 (  4969 PWs)   bands (ev):

   -14.2388 -14.2388 -14.2146 -14.2146 -14.2065 -14.1975 -14.1665 -14.1665
   -14.1332 -14.1332 -14.0054 -14.0054 -14.0018 -13.9912 -13.9868 -13.9868
   -13.9591 -13.9591 -13.9428 -13.9428  -1.7471  -0.4429   4.0416   8.1543
     9.3935   9.3935  10.4451  10.4451  10.7446  11.8770  13.3055  13.3055
    13.8997  14.8014

          k = 0.0000 0.0000-0.1516 (  4969 PWs)   bands (ev):

   -14.2388 -14.2388 -14.2146 -14.2146 -14.2065 -14.1975 -14.1665 -14.1665
   -14.1332 -14.1332 -14.0054 -14.0054 -14.0018 -13.9912 -13.9868 -13.9868
   -13.9591 -13.9591 -13.9428 -13.9428  -1.7471  -0.4429   4.0416   8.1543
     9.3935   9.3935  10.4451  10.4451  10.7446  11.8770  13.3055  13.3055
    13.8997  14.8014

          k = 0.0000 0.0000-0.3032 (  4938 PWs)   bands (ev):

   -14.2281 -14.2281 -14.2281 -14.2281 -14.2014 -14.2014 -14.1496 -14.1496
   -14.1496 -14.1496 -13.9971 -13.9971 -13.9950 -13.9950 -13.9950 -13.9950
   -13.9509 -13.9509 -13.9509 -13.9509  -1.2157  -1.2157   5.9014   5.9014
     9.8431   9.8431   9.8431   9.8431  11.3051  11.3051  14.0320  14.0320
    14.0320  14.0320

          k = 0.0000 0.0000-0.6063 (  4951 PWs)   bands (ev):

   -14.2429 -14.2429 -14.2089 -14.2068 -14.2068 -14.1963 -14.1753 -14.1753
   -14.1260 -14.1260 -14.0105 -14.0105 -14.0034 -13.9885 -13.9841 -13.9841
   -13.9623 -13.9623 -13.9394 -13.9394  -1.9307   0.0628   3.1654   9.2325
     9.2325  10.4891  10.5189  10.5463  10.7942  10.7942  12.9451  12.9451
    13.4303  15.1943

          k = 0.0000 0.1443 0.0000 (  4969 PWs)   bands (ev):

   -14.2514 -14.2455 -14.2162 -14.2113 -14.2062 -14.1849 -14.1682 -14.1620
   -14.1190 -14.1162 -14.0237 -14.0233 -14.0184 -13.9930 -13.9803 -13.9740
   -13.9711 -13.9602 -13.9342 -13.9293  -1.7655   0.2348   3.1743   7.8190
     8.6452   8.8976  10.2099  10.4701  11.6548  11.9533  13.1183  13.4127
    13.8733  15.3201

          k = 0.0000 0.1443-0.3032 (  4948 PWs)   bands (ev):

   -14.2329 -14.2329 -14.2311 -14.2311 -14.1982 -14.1982 -14.1424 -14.1424
   -14.1416 -14.1416 -14.0178 -14.0178 -14.0012 -14.0012 -13.9834 -13.9834
   -13.9484 -13.9484 -13.9472 -13.9472  -1.0516  -1.0516   5.7481   5.7481
     8.6721   8.6721   9.5203   9.5203  12.3089  12.3089  13.9079  13.9079
    14.6098  14.6098

          k = 0.0000 0.1443 0.1516 (  4960 PWs)   bands (ev):

   -14.2463 -14.2415 -14.2183 -14.2175 -14.2087 -14.1881 -14.1599 -14.1555
   -14.1265 -14.1245 -14.0239 -14.0161 -14.0120 -13.9970 -13.9861 -13.9725
   -13.9620 -13.9596 -13.9378 -13.9346  -1.5823  -0.2772   4.0232   7.5941
     8.0352   9.0618   9.6525  10.1281  11.7517  12.5394  13.3258  13.8076
    14.1640  14.8336

          k = 0.0000 0.1443-0.1516 (  4960 PWs)   bands (ev):

   -14.2463 -14.2415 -14.2183 -14.2175 -14.2087 -14.1881 -14.1599 -14.1555
   -14.1265 -14.1245 -14.0239 -14.0161 -14.0120 -13.9970 -13.9861 -13.9725
   -13.9620 -13.9596 -13.9378 -13.9346  -1.5823  -0.2772   4.0232   7.5941
     8.0352   9.0618   9.6525  10.1281  11.7517  12.5394  13.3258  13.8076
    14.1640  14.8336

          k = 0.0000 0.1443-0.3032 (  4948 PWs)   bands (ev):

   -14.2329 -14.2329 -14.2311 -14.2311 -14.1982 -14.1982 -14.1424 -14.1424
   -14.1416 -14.1416 -14.0178 -14.0178 -14.0012 -14.0012 -13.9834 -13.9834
   -13.9484 -13.9484 -13.9472 -13.9472  -1.0516  -1.0516   5.7481   5.7481
     8.6721   8.6721   9.5203   9.5203  12.3089  12.3089  13.9079  13.9079
    14.6098  14.6098

          k = 0.0000 0.1443-0.6063 (  4969 PWs)   bands (ev):

   -14.2514 -14.2455 -14.2162 -14.2113 -14.2062 -14.1849 -14.1682 -14.1620
   -14.1190 -14.1162 -14.0237 -14.0233 -14.0184 -13.9930 -13.9803 -13.9740
   -13.9711 -13.9602 -13.9342 -13.9293  -1.7655   0.2348   3.1743   7.8190
     8.6452   8.8976  10.2099  10.4701  11.6548  11.9533  13.1183  13.4127
    13.8733  15.3201

          k = 0.0000 0.2887 0.0000 (  4944 PWs)   bands (ev):

   -14.2604 -14.2494 -14.2289 -14.2192 -14.2013 -14.1715 -14.1528 -14.1300
   -14.1039 -14.0945 -14.0525 -14.0474 -14.0436 -13.9981 -13.9872 -13.9819
   -13.9607 -13.9506 -13.9279 -13.9190  -1.2830   0.7407   2.9976   6.4470
     6.6441   8.2998   9.3907   9.8812  11.6591  12.3899  13.9570  14.1287
    14.3948  16.3063

          k = 0.0000 0.2887-0.3032 (  4932 PWs)   bands (ev):

   -14.2380 -14.2380 -14.2362 -14.2362 -14.1937 -14.1937 -14.1283 -14.1283
   -14.1271 -14.1271 -14.0362 -14.0362 -14.0134 -14.0134 -13.9819 -13.9819
   -13.9446 -13.9446 -13.9410 -13.9410  -0.5751  -0.5751   4.9272   4.9272
     7.9253   7.9253   8.9348   8.9348  11.9963  11.9963  14.1533  14.1533
    15.7839  15.7839

          k = 0.0000 0.2887 0.1516 (  4950 PWs)   bands (ev):

   -14.2540 -14.2458 -14.2262 -14.2248 -14.2058 -14.1758 -14.1451 -14.1328
   -14.1148 -14.1062 -14.0484 -14.0338 -14.0327 -14.0003 -13.9961 -13.9702
   -13.9572 -13.9532 -13.9315 -13.9262  -1.1016   0.2028   3.7114   6.0493
     6.8192   8.4676   9.2668   9.5467  11.3048  12.4902  13.4218  14.6651
    15.3565  15.8887

          k = 0.0000 0.2887-0.1516 (  4950 PWs)   bands (ev):

   -14.2540 -14.2458 -14.2262 -14.2248 -14.2058 -14.1758 -14.1451 -14.1328
   -14.1148 -14.1062 -14.0484 -14.0338 -14.0327 -14.0003 -13.9961 -13.9702
   -13.9572 -13.9532 -13.9315 -13.9262  -1.1016   0.2028   3.7114   6.0493
     6.8192   8.4676   9.2668   9.5467  11.3048  12.4902  13.4218  14.6651
    15.3565  15.8887

          k = 0.0000 0.2887-0.3032 (  4932 PWs)   bands (ev):

   -14.2380 -14.2380 -14.2362 -14.2362 -14.1937 -14.1937 -14.1283 -14.1283
   -14.1271 -14.1271 -14.0362 -14.0362 -14.0134 -14.0134 -13.9819 -13.9819
   -13.9446 -13.9446 -13.9410 -13.9410  -0.5751  -0.5751   4.9272   4.9272
     7.9253   7.9253   8.9348   8.9348  11.9963  11.9963  14.1533  14.1533
    15.7839  15.7839

          k = 0.0000 0.2887-0.6063 (  4944 PWs)   bands (ev):

   -14.2604 -14.2494 -14.2289 -14.2192 -14.2013 -14.1715 -14.1528 -14.1300
   -14.1039 -14.0945 -14.0525 -14.0474 -14.0436 -13.9981 -13.9872 -13.9819
   -13.9607 -13.9506 -13.9279 -13.9190  -1.2830   0.7407   2.9976   6.4470
     6.6441   8.2998   9.3907   9.8812  11.6591  12.3899  13.9570  14.1287
    14.3948  16.3063

          k = 0.0000 0.4330 0.0000 (  4942 PWs)   bands (ev):

   -14.2610 -14.2513 -14.2412 -14.2246 -14.1900 -14.1638 -14.1384 -14.0954
   -14.0913 -14.0875 -14.0728 -14.0675 -14.0605 -14.0025 -13.9989 -13.9927
   -13.9519 -13.9394 -13.9247 -13.9177  -0.5520   1.5205   2.2605   4.9146
     6.0809   7.8507   8.4487   9.4344  11.3730  12.3575  14.3639  14.3756
    14.3863  17.0105

          k = 0.0000 0.4330-0.3032 (  4926 PWs)   bands (ev):

   -14.2393 -14.2393 -14.2386 -14.2386 -14.1881 -14.1881 -14.1316 -14.1316
   -14.1138 -14.1138 -14.0312 -14.0312 -14.0235 -14.0235 -13.9906 -13.9906
   -13.9431 -13.9431 -13.9368 -13.9368   0.1289   0.1289   3.6311   3.6311
     8.0300   8.0300   8.4909   8.4909  11.4327  11.4327  13.2447  13.2447
    16.5624  16.5624

          k = 0.0000 0.4330 0.1516 (  4929 PWs)   bands (ev):

   -14.2540 -14.2480 -14.2359 -14.2293 -14.1950 -14.1671 -14.1313 -14.1276
   -14.1138 -14.0915 -14.0543 -14.0430 -14.0389 -14.0087 -14.0040 -13.9845
   -13.9469 -13.9455 -13.9281 -13.9257  -0.3773   0.8903   2.8374   4.4555
     6.6563   8.0201   8.8198   9.1034  11.1021  11.8342  13.3199  14.9279
    15.0256  16.1741

          k = 0.0000 0.4330-0.1516 (  4929 PWs)   bands (ev):

   -14.2540 -14.2480 -14.2359 -14.2293 -14.1950 -14.1671 -14.1313 -14.1276
   -14.1138 -14.0915 -14.0543 -14.0430 -14.0389 -14.0087 -14.0040 -13.9845
   -13.9469 -13.9455 -13.9281 -13.9257  -0.3773   0.8903   2.8374   4.4555
     6.6563   8.0201   8.8198   9.1034  11.1021  11.8342  13.3199  14.9279
    15.0256  16.1741

          k = 0.0000 0.4330-0.3032 (  4926 PWs)   bands (ev):

   -14.2393 -14.2393 -14.2386 -14.2386 -14.1881 -14.1881 -14.1316 -14.1316
   -14.1138 -14.1138 -14.0312 -14.0312 -14.0235 -14.0235 -13.9906 -13.9906
   -13.9431 -13.9431 -13.9368 -13.9368   0.1289   0.1289   3.6311   3.6311
     8.0300   8.0300   8.4909   8.4909  11.4327  11.4327  13.2447  13.2447
    16.5624  16.5624

          k = 0.0000 0.4330-0.6063 (  4942 PWs)   bands (ev):

   -14.2610 -14.2513 -14.2412 -14.2246 -14.1900 -14.1638 -14.1384 -14.0954
   -14.0913 -14.0875 -14.0728 -14.0675 -14.0605 -14.0025 -13.9989 -13.9927
   -13.9519 -13.9394 -13.9247 -13.9177  -0.5520   1.5205   2.2605   4.9146
     6.0809   7.8507   8.4487   9.4344  11.3730  12.3575  14.3639  14.3756
    14.3863  17.0105

          k = 0.0000-0.5774 0.0000 (  4934 PWs)   bands (ev):

   -14.2571 -14.2516 -14.2490 -14.2264 -14.1815 -14.1614 -14.1324 -14.1052
   -14.0863 -14.0779 -14.0754 -14.0675 -14.0627 -14.0100 -14.0014 -13.9982
   -13.9489 -13.9324 -13.9239 -13.9209  -0.0056   1.6173   2.1209   3.9905
     6.2138   7.6904   7.9494   9.2744  11.2423  12.2774  14.2458  14.3714
    14.9728  16.1520

          k = 0.0000-0.5774-0.3032 (  4964 PWs)   bands (ev):

   -14.2402 -14.2402 -14.2379 -14.2379 -14.1836 -14.1836 -14.1398 -14.1398
   -14.1088 -14.1088 -14.0272 -14.0272 -14.0131 -14.0131 -14.0062 -14.0062
   -13.9428 -13.9428 -13.9355 -13.9355   0.6115   0.6115   2.8997   2.8997
     8.1901   8.1901   8.3319   8.3319  11.2049  11.2049  12.8222  12.8222
    16.7227  16.7227

          k = 0.0000-0.5774 0.1516 (  4944 PWs)   bands (ev):

   -14.2503 -14.2484 -14.2424 -14.2308 -14.1860 -14.1632 -14.1365 -14.1257
   -14.1185 -14.0874 -14.0444 -14.0419 -14.0391 -14.0148 -14.0006 -14.0005
   -13.9446 -13.9387 -13.9289 -13.9272   0.1561   1.2307   2.3657   3.5917
     6.8480   7.8603   8.4635   8.9445  11.2911  11.3802  13.5809  14.1625
    15.0625  16.0830

          k = 0.0000-0.5774-0.1516 (  4944 PWs)   bands (ev):

   -14.2503 -14.2484 -14.2424 -14.2308 -14.1860 -14.1632 -14.1365 -14.1257
   -14.1185 -14.0874 -14.0444 -14.0419 -14.0391 -14.0148 -14.0006 -14.0005
   -13.9446 -13.9387 -13.9289 -13.9272   0.1561   1.2307   2.3657   3.5917
     6.8480   7.8603   8.4635   8.9445  11.2911  11.3802  13.5809  14.1625
    15.0625  16.0830

          k = 0.0000-0.5774-0.3032 (  4964 PWs)   bands (ev):

   -14.2402 -14.2402 -14.2379 -14.2379 -14.1836 -14.1836 -14.1398 -14.1398
   -14.1088 -14.1088 -14.0272 -14.0272 -14.0131 -14.0131 -14.0062 -14.0062
   -13.9428 -13.9428 -13.9355 -13.9355   0.6115   0.6115   2.8997   2.8997
     8.1901   8.1901   8.3319   8.3319  11.2049  11.2049  12.8222  12.8222
    16.7227  16.7227

          k = 0.0000-0.5774-0.6063 (  4934 PWs)   bands (ev):

   -14.2571 -14.2516 -14.2490 -14.2264 -14.1815 -14.1614 -14.1324 -14.1052
   -14.0863 -14.0779 -14.0754 -14.0675 -14.0627 -14.0100 -14.0014 -13.9982
   -13.9489 -13.9324 -13.9239 -13.9209  -0.0056   1.6173   2.1209   3.9905
     6.2138   7.6904   7.9494   9.2744  11.2423  12.2774  14.2458  14.3714
    14.9728  16.1520

          k = 0.1250 0.2165 0.0000 (  4941 PWs)   bands (ev):

   -14.2578 -14.2508 -14.2243 -14.2196 -14.2006 -14.1758 -14.1485 -14.1463
   -14.1070 -14.1019 -14.0413 -14.0409 -14.0374 -14.0036 -13.9842 -13.9757
   -13.9609 -13.9578 -13.9262 -13.9221  -1.4409   0.5745   3.0959   6.8273
     7.2174   8.1301   9.7494   9.7858  12.4644  12.5577  13.0950  14.2051
    14.5512  15.2242

          k = 0.1250 0.2165-0.3032 (  4970 PWs)   bands (ev):

   -14.2374 -14.2374 -14.2356 -14.2356 -14.1938 -14.1938 -14.1336 -14.1336
   -14.1281 -14.1281 -14.0342 -14.0342 -14.0095 -14.0095 -13.9820 -13.9820
   -13.9471 -13.9471 -13.9402 -13.9402  -0.7304  -0.7304   5.2504   5.2504
     8.0926   8.0926   8.8049   8.8049  13.0181  13.0181  13.5575  13.5575
    15.3698  15.3698

          k = 0.1250 0.2165 0.1516 (  4952 PWs)   bands (ev):

   -14.2517 -14.2469 -14.2253 -14.2227 -14.2052 -14.1785 -14.1452 -14.1422
   -14.1152 -14.1130 -14.0429 -14.0322 -14.0191 -14.0131 -13.9832 -13.9705
   -13.9639 -13.9528 -13.9302 -13.9291  -1.2588   0.0467   3.8632   6.5415
     7.1369   8.3211   9.4095   9.4352  12.1425  12.6789  13.9591  14.2248
    14.4626  14.8997

          k = 0.1250 0.2165-0.1516 (  4952 PWs)   bands (ev):

   -14.2517 -14.2469 -14.2253 -14.2227 -14.2052 -14.1785 -14.1452 -14.1422
   -14.1152 -14.1130 -14.0429 -14.0322 -14.0191 -14.0131 -13.9832 -13.9705
   -13.9639 -13.9528 -13.9302 -13.9291  -1.2588   0.0467   3.8632   6.5415
     7.1369   8.3211   9.4095   9.4352  12.1425  12.6789  13.9591  14.2248
    14.4626  14.8997

          k = 0.1250 0.2165-0.3032 (  4970 PWs)   bands (ev):

   -14.2374 -14.2374 -14.2356 -14.2356 -14.1938 -14.1938 -14.1336 -14.1336
   -14.1281 -14.1281 -14.0342 -14.0342 -14.0095 -14.0095 -13.9820 -13.9820
   -13.9471 -13.9471 -13.9402 -13.9402  -0.7304  -0.7304   5.2504   5.2504
     8.0926   8.0926   8.8049   8.8049  13.0181  13.0181  13.5575  13.5575
    15.3698  15.3698

          k = 0.1250 0.2165-0.6063 (  4941 PWs)   bands (ev):

   -14.2578 -14.2508 -14.2243 -14.2196 -14.2006 -14.1758 -14.1485 -14.1463
   -14.1070 -14.1019 -14.0413 -14.0409 -14.0374 -14.0036 -13.9842 -13.9757
   -13.9609 -13.9578 -13.9262 -13.9221  -1.4409   0.5745   3.0959   6.8273
     7.2174   8.1301   9.7494   9.7858  12.4644  12.5577  13.0950  14.2051
    14.5512  15.2242

          k = 0.1250 0.3608 0.0000 (  4943 PWs)   bands (ev):

   -14.2612 -14.2555 -14.2360 -14.2290 -14.1873 -14.1615 -14.1352 -14.1137
   -14.0919 -14.0831 -14.0717 -14.0604 -14.0559 -14.0139 -13.9975 -13.9899
   -13.9477 -13.9456 -13.9208 -13.9174  -0.8222   1.2298   2.6123   5.5732
     6.2324   7.3471   8.9271   9.0203  12.4606  13.0852  13.6769  14.5131
    14.6354  16.4915

          k = 0.1250 0.3608-0.3032 (  4950 PWs)   bands (ev):

   -14.2437 -14.2437 -14.2372 -14.2372 -14.1869 -14.1869 -14.1257 -14.1257
   -14.1142 -14.1142 -14.0445 -14.0445 -14.0181 -14.0181 -13.9894 -13.9894
   -13.9454 -13.9454 -13.9326 -13.9326  -0.1269  -0.1269   4.1526   4.1526
     7.8836   7.8836   8.2164   8.2164  12.4039  12.4039  13.8651  13.8651
    15.6485  15.6485

          k = 0.1250 0.3608 0.1516 (  4939 PWs)   bands (ev):

   -14.2546 -14.2514 -14.2337 -14.2315 -14.1939 -14.1651 -14.1331 -14.1241
   -14.1073 -14.0974 -14.0608 -14.0411 -14.0357 -14.0214 -13.9949 -13.9855
   -13.9512 -13.9427 -13.9269 -13.9231  -0.6442   0.6481   3.2220   5.0689
     6.7292   7.5546   8.6468   9.1361  11.8022  12.9426  13.8700  14.3788
    15.2406  15.6109

          k = 0.1250 0.3608-0.1516 (  4939 PWs)   bands (ev):

   -14.2546 -14.2514 -14.2337 -14.2315 -14.1939 -14.1651 -14.1331 -14.1241
   -14.1073 -14.0974 -14.0608 -14.0411 -14.0357 -14.0214 -13.9949 -13.9855
   -13.9512 -13.9427 -13.9269 -13.9231  -0.6442   0.6481   3.2220   5.0689
     6.7292   7.5546   8.6468   9.1361  11.8022  12.9426  13.8700  14.3788
    15.2406  15.6109

          k = 0.1250 0.3608-0.3032 (  4950 PWs)   bands (ev):

   -14.2437 -14.2437 -14.2372 -14.2372 -14.1869 -14.1869 -14.1257 -14.1257
   -14.1142 -14.1142 -14.0445 -14.0445 -14.0181 -14.0181 -13.9894 -13.9894
   -13.9454 -13.9454 -13.9326 -13.9326  -0.1269  -0.1269   4.1526   4.1526
     7.8836   7.8836   8.2164   8.2164  12.4039  12.4039  13.8651  13.8651
    15.6485  15.6485

          k = 0.1250 0.3608-0.6063 (  4943 PWs)   bands (ev):

   -14.2612 -14.2555 -14.2360 -14.2290 -14.1873 -14.1615 -14.1352 -14.1137
   -14.0919 -14.0831 -14.0717 -14.0604 -14.0559 -14.0139 -13.9975 -13.9899
   -13.9477 -13.9456 -13.9208 -13.9174  -0.8222   1.2298   2.6123   5.5732
     6.2324   7.3471   8.9271   9.0203  12.4606  13.0852  13.6769  14.5131
    14.6354  16.4915

          k = 0.1250 0.5052 0.0000 (  4941 PWs)   bands (ev):

   -14.2591 -14.2566 -14.2473 -14.2341 -14.1710 -14.1481 -14.1300 -14.1029
   -14.0842 -14.0823 -14.0737 -14.0680 -14.0635 -14.0162 -14.0154 -14.0060
   -13.9402 -13.9333 -13.9204 -13.9177  -0.0622   1.7587   2.0561   4.1957
     6.2149   7.1263   8.0722   8.6086  12.3360  13.2153  13.2684  15.0555
    15.2885  16.3457

          k = 0.1250 0.5052-0.3032 (  4920 PWs)   bands (ev):

   -14.2468 -14.2468 -14.2373 -14.2373 -14.1796 -14.1796 -14.1290 -14.1290
   -14.1074 -14.1074 -14.0366 -14.0366 -14.0211 -14.0211 -14.0049 -14.0049
   -13.9438 -13.9438 -13.9285 -13.9285   0.5686   0.5686   3.0648   3.0648
     7.5075   7.5075   8.4504   8.4504  11.7781  11.7781  13.4937  13.4937
    15.8868  15.8868

          k = 0.1250 0.5052 0.1516 (  4935 PWs)   bands (ev):

   -14.2548 -14.2506 -14.2412 -14.2379 -14.1788 -14.1533 -14.1320 -14.1236
   -14.1101 -14.0881 -14.0542 -14.0422 -14.0375 -14.0247 -14.0100 -14.0053
   -13.9404 -13.9362 -13.9284 -13.9209   0.1020   1.2316   2.4619   3.7844
     6.7167   7.4329   8.2170   8.5946  11.9052  12.5199  13.9404  14.1097
    14.5993  16.7831

          k = 0.1250 0.5052-0.1516 (  4935 PWs)   bands (ev):

   -14.2548 -14.2506 -14.2412 -14.2379 -14.1788 -14.1533 -14.1320 -14.1236
   -14.1101 -14.0881 -14.0542 -14.0422 -14.0375 -14.0247 -14.0100 -14.0053
   -13.9404 -13.9362 -13.9284 -13.9209   0.1020   1.2316   2.4619   3.7844
     6.7167   7.4329   8.2170   8.5946  11.9052  12.5199  13.9404  14.1097
    14.5993  16.7831

          k = 0.1250 0.5052-0.3032 (  4920 PWs)   bands (ev):

   -14.2468 -14.2468 -14.2373 -14.2373 -14.1796 -14.1796 -14.1290 -14.1290
   -14.1074 -14.1074 -14.0366 -14.0366 -14.0211 -14.0211 -14.0049 -14.0049
   -13.9438 -13.9438 -13.9285 -13.9285   0.5686   0.5686   3.0648   3.0648
     7.5075   7.5075   8.4504   8.4504  11.7781  11.7781  13.4937  13.4937
    15.8868  15.8868

          k = 0.1250 0.5052-0.6063 (  4941 PWs)   bands (ev):

   -14.2591 -14.2566 -14.2473 -14.2341 -14.1710 -14.1481 -14.1300 -14.1029
   -14.0842 -14.0823 -14.0737 -14.0680 -14.0635 -14.0162 -14.0154 -14.0060
   -13.9402 -13.9333 -13.9204 -13.9177  -0.0622   1.7587   2.0561   4.1957
     6.2149   7.1263   8.0722   8.6086  12.3360  13.2153  13.2684  15.0555
    15.2885  16.3457

          k = 0.2500 0.4330 0.0000 (  4941 PWs)   bands (ev):

   -14.2625 -14.2590 -14.2458 -14.2399 -14.1628 -14.1403 -14.1105 -14.1029
   -14.1003 -14.0724 -14.0709 -14.0696 -14.0675 -14.0309 -14.0272 -14.0071
   -13.9344 -13.9338 -13.9194 -13.9129  -0.1128   1.9011   1.9988   4.4172
     6.3225   6.5599   8.0810   8.2118  12.6804  14.0265  14.4405  14.6195
    15.9557  16.3168

          k = 0.2500 0.4330-0.3032 (  4926 PWs)   bands (ev):

   -14.2518 -14.2518 -14.2372 -14.2372 -14.1771 -14.1771 -14.1183 -14.1183
   -14.1000 -14.1000 -14.0561 -14.0561 -14.0225 -14.0225 -14.0047 -14.0047
   -13.9441 -13.9441 -13.9232 -13.9232   0.5288   0.5288   3.2440   3.2440
     7.0326   7.0326   8.4522   8.4522  12.1927  12.1927  14.9103  14.9103
    15.4112  15.4112

          k = 0.2500 0.4330 0.1516 (  4937 PWs)   bands (ev):

   -14.2594 -14.2516 -14.2436 -14.2398 -14.1738 -14.1474 -14.1293 -14.1072
   -14.0982 -14.0937 -14.0669 -14.0445 -14.0414 -14.0367 -14.0108 -14.0104
   -13.9409 -13.9307 -13.9277 -13.9159   0.0534   1.2230   2.5793   3.9920
     6.5190   7.1613   7.7056   8.6860  12.3842  13.3771  14.0189  14.9801
    15.2351  15.8155

          k = 0.2500 0.4330-0.1516 (  4937 PWs)   bands (ev):

   -14.2594 -14.2516 -14.2436 -14.2398 -14.1738 -14.1474 -14.1293 -14.1072
   -14.0982 -14.0937 -14.0669 -14.0445 -14.0414 -14.0367 -14.0108 -14.0104
   -13.9409 -13.9307 -13.9277 -13.9159   0.0534   1.2230   2.5793   3.9920
     6.5190   7.1613   7.7056   8.6860  12.3842  13.3771  14.0189  14.9801
    15.2351  15.8155

          k = 0.2500 0.4330-0.3032 (  4926 PWs)   bands (ev):

   -14.2518 -14.2518 -14.2372 -14.2372 -14.1771 -14.1771 -14.1183 -14.1183
   -14.1000 -14.1000 -14.0561 -14.0561 -14.0225 -14.0225 -14.0047 -14.0047
   -13.9441 -13.9441 -13.9232 -13.9232   0.5288   0.5288   3.2440   3.2440
     7.0326   7.0326   8.4522   8.4522  12.1927  12.1927  14.9103  14.9103
    15.4112  15.4112

          k = 0.2500 0.4330-0.6063 (  4941 PWs)   bands (ev):

   -14.2625 -14.2590 -14.2458 -14.2399 -14.1628 -14.1403 -14.1105 -14.1029
   -14.1003 -14.0724 -14.0709 -14.0696 -14.0675 -14.0309 -14.0272 -14.0071
   -13.9344 -13.9338 -13.9194 -13.9129  -0.1128   1.9011   1.9988   4.4172
     6.3225   6.5599   8.0810   8.2118  12.6804  14.0265  14.4405  14.6195
    15.9557  16.3168

          k = 0.2500 0.5774 0.0000 (  4930 PWs)   bands (ev):

   -14.2647 -14.2561 -14.2524 -14.2441 -14.1440 -14.1243 -14.1173 -14.1107
   -14.0823 -14.0784 -14.0724 -14.0667 -14.0556 -14.0519 -14.0347 -14.0245
   -13.9284 -13.9268 -13.9220 -13.9105   0.5079   1.2621   2.6966   3.5804
     5.9594   7.0135   7.6221   7.7399  12.3717  14.4689  14.5821  15.6263
    15.9067  16.6266

          k = 0.2500 0.5774-0.3032 (  4928 PWs)   bands (ev):

   -14.2551 -14.2551 -14.2374 -14.2374 -14.1732 -14.1732 -14.1108 -14.1108
   -14.0961 -14.0961 -14.0571 -14.0571 -14.0323 -14.0323 -14.0096 -14.0096
   -13.9431 -13.9431 -13.9193 -13.9193   0.9799   0.9799   2.6980   2.6980
     6.6795   6.6795   8.6581   8.6581  11.9160  11.9160  14.9369  14.9369
    15.4110  15.4110

          k = 0.2500 0.5774 0.1516 (  4939 PWs)   bands (ev):

   -14.2620 -14.2488 -14.2475 -14.2453 -14.1599 -14.1470 -14.1196 -14.1094
   -14.0913 -14.0882 -14.0605 -14.0593 -14.0394 -14.0320 -14.0300 -14.0241
   -13.9344 -13.9302 -13.9257 -13.9130   0.6438   1.2342   2.5631   3.2327
     6.1598   7.3584   7.6159   8.2089  12.7443  13.2519  13.5364  14.8824
    16.0597  16.9501

          k = 0.2500 0.5774-0.1516 (  4939 PWs)   bands (ev):

   -14.2620 -14.2488 -14.2475 -14.2453 -14.1599 -14.1470 -14.1196 -14.1094
   -14.0913 -14.0882 -14.0605 -14.0593 -14.0394 -14.0320 -14.0300 -14.0241
   -13.9344 -13.9302 -13.9257 -13.9130   0.6438   1.2342   2.5631   3.2327
     6.1598   7.3584   7.6159   8.2089  12.7443  13.2519  13.5364  14.8824
    16.0597  16.9501

          k = 0.2500 0.5774-0.3032 (  4928 PWs)   bands (ev):

   -14.2551 -14.2551 -14.2374 -14.2374 -14.1732 -14.1732 -14.1108 -14.1108
   -14.0961 -14.0961 -14.0571 -14.0571 -14.0323 -14.0323 -14.0096 -14.0096
   -13.9431 -13.9431 -13.9193 -13.9193   0.9799   0.9799   2.6980   2.6980
     6.6795   6.6795   8.6581   8.6581  11.9160  11.9160  14.9369  14.9369
    15.4110  15.4110

          k = 0.2500 0.5774-0.6063 (  4930 PWs)   bands (ev):

   -14.2647 -14.2561 -14.2524 -14.2441 -14.1440 -14.1243 -14.1173 -14.1107
   -14.0823 -14.0784 -14.0724 -14.0667 -14.0556 -14.0519 -14.0347 -14.0245
   -13.9284 -13.9268 -13.9220 -13.9105   0.5079   1.2621   2.6966   3.5804
     5.9594   7.0135   7.6221   7.7399  12.3717  14.4689  14.5821  15.6263
    15.9067  16.6266

     the Fermi energy is    10.6039 ev

     Writing config to output data dir temp/_ph0/hex_ge.save/ :
     XML data file

     default                                                                    

     bravais-lattice index     =            0
     lattice parameter (alat)  =       7.6109  a.u.
     unit-cell volume          =     629.7232 (a.u.)^3
     number of atoms/cell      =            4
     number of atomic types    =            1
     kinetic-energy cut-off    =      60.0000  Ry
     charge density cut-off    =     240.0000  Ry
     convergence threshold     =      1.0E-12
     beta                      =       0.7000
     number of iterations used =            4
     Exchange-correlation= PBE
                           (   1   4   3   4   0   0   0)


     celldm(1)=    7.61093  celldm(2)=    0.00000  celldm(3)=    0.00000
     celldm(4)=    0.00000  celldm(5)=    0.00000  celldm(6)=    0.00000

     crystal axes: (cart. coord. in units of alat)
               a(1) = (  1.0000  0.0000  0.0000 )  
               a(2) = ( -0.5000  0.8660  0.0000 )  
               a(3) = (  0.0000  0.0000  1.6493 )  

     reciprocal axes: (cart. coord. in units 2 pi/alat)
               b(1) = (  1.0000  0.5774  0.0000 )  
               b(2) = (  0.0000  1.1547  0.0000 )  
               b(3) = (  0.0000  0.0000  0.6063 )  


     Atoms inside the unit cell: 

     Cartesian axes

     site n.  atom      mass           positions (alat units)
        1  Ge     72.6400   tau(    1) = (   -0.00000    0.57735    0.92854  )
        2  Ge     72.6400   tau(    2) = (    0.50000    0.28868    0.72078  )
        3  Ge     72.6400   tau(    3) = (    0.50000    0.28868    0.10388  )
        4  Ge     72.6400   tau(    4) = (    0.00000    0.57735    1.54544  )

     Computing dynamical matrix for 
                    q = (   0.0000000   0.0000000  -0.3031551 )
 
     25 Sym.Ops. (with q -> -q+G )


     G cutoff =  352.1498  (   1240 G-vectors)     FFT grid: ( 40, 40, 64)

     number of k points=    60  Marzari-Vanderbilt smearing, width (Ry)=  0.0100

     PseudoPot. # 1 for Ge read from file:
     pseudo/Ge_ONCV_PBE-1.0.upf
     MD5 check sum: 39f69ca9d3fedd83738352a2cbce5cbd
     Pseudo is Norm-conserving, Zval = 14.0
     Generated using ONCVPSP code by D. R. Hamann
     Using radial grid of  602 points,  6 beta functions with: 
                l(1) =   0
                l(2) =   0
                l(3) =   1
                l(4) =   1
                l(5) =   2
                l(6) =   2


     Atomic displacements:
     There are    4 irreducible representations

     Representation     1      2 modes -  To be done

     Representation     2      2 modes -  To be done

     Representation     3      4 modes -  To be done

     Representation     4      4 modes -  To be done


     Message from routine init_vloc:
     Interpolation table for Vloc re-allocated

     Alpha used in Ewald sum =   2.2000
     PHONON       :     33.19s CPU     35.09s WALL



     Representation #   1 modes #   1   2

     Self-consistent Calculation

      iter #   1 total cpu time :    35.8 secs   av.it.:   9.9
      thresh= 1.000E-02 alpha_mix =  0.700 |ddv_scf|^2 =  2.356E-04

      iter #   2 total cpu time :    36.8 secs   av.it.:  13.9
      thresh= 1.535E-03 alpha_mix =  0.700 |ddv_scf|^2 =  4.843E-03

      iter #   3 total cpu time :    37.6 secs   av.it.:  10.5
      thresh= 6.959E-03 alpha_mix =  0.700 |ddv_scf|^2 =  1.293E-06

      iter #   4 total cpu time :    38.7 secs   av.it.:  14.9
      thresh= 1.137E-04 alpha_mix =  0.700 |ddv_scf|^2 =  6.280E-08

      iter #   5 total cpu time :    39.7 secs   av.it.:  14.2
      thresh= 2.506E-05 alpha_mix =  0.700 |ddv_scf|^2 =  3.944E-09

      iter #   6 total cpu time :    40.7 secs   av.it.:  14.3
      thresh= 6.280E-06 alpha_mix =  0.700 |ddv_scf|^2 =  4.190E-11

      iter #   7 total cpu time :    41.7 secs   av.it.:  14.5
      thresh= 6.473E-07 alpha_mix =  0.700 |ddv_scf|^2 =  2.196E-12

      iter #   8 total cpu time :    42.8 secs   av.it.:  15.0
      thresh= 1.482E-07 alpha_mix =  0.700 |ddv_scf|^2 =  6.206E-14

     End of self-consistent calculation

     Convergence has been achieved 


     Representation #   2 modes #   3   4

     Self-consistent Calculation

      iter #   1 total cpu time :    43.6 secs   av.it.:  10.2
      thresh= 1.000E-02 alpha_mix =  0.700 |ddv_scf|^2 =  5.770E-04

      iter #   2 total cpu time :    44.6 secs   av.it.:  14.0
      thresh= 2.402E-03 alpha_mix =  0.700 |ddv_scf|^2 =  1.309E-02

      iter #   3 total cpu time :    45.4 secs   av.it.:  10.8
      thresh= 1.000E-02 alpha_mix =  0.700 |ddv_scf|^2 =  7.122E-06

      iter #   4 total cpu time :    46.4 secs   av.it.:  14.1
      thresh= 2.669E-04 alpha_mix =  0.700 |ddv_scf|^2 =  1.902E-07

      iter #   5 total cpu time :    47.4 secs   av.it.:  13.9
      thresh= 4.361E-05 alpha_mix =  0.700 |ddv_scf|^2 =  1.230E-09

      iter #   6 total cpu time :    48.4 secs   av.it.:  15.1
      thresh= 3.506E-06 alpha_mix =  0.700 |ddv_scf|^2 =  1.508E-11

      iter #   7 total cpu time :    49.4 secs   av.it.:  14.8
      thresh= 3.884E-07 alpha_mix =  0.700 |ddv_scf|^2 =  6.978E-12

      iter #   8 total cpu time :    50.4 secs   av.it.:  13.3
      thresh= 2.642E-07 alpha_mix =  0.700 |ddv_scf|^2 =  6.907E-14

     End of self-consistent calculation

     Convergence has been achieved 


     Representation #   3 modes #   5   6   7   8

     Self-consistent Calculation

      iter #   1 total cpu time :    52.0 secs   av.it.:  10.0
      thresh= 1.000E-02 alpha_mix =  0.700 |ddv_scf|^2 =  8.938E-07

      iter #   2 total cpu time :    54.5 secs   av.it.:  17.7
      thresh= 9.454E-05 alpha_mix =  0.700 |ddv_scf|^2 =  3.826E-07

      iter #   3 total cpu time :    56.8 secs   av.it.:  16.9
      thresh= 6.186E-05 alpha_mix =  0.700 |ddv_scf|^2 =  3.118E-10

      iter #   4 total cpu time :    59.2 secs   av.it.:  17.3
      thresh= 1.766E-06 alpha_mix =  0.700 |ddv_scf|^2 =  3.441E-11

      iter #   5 total cpu time :    61.5 secs   av.it.:  16.7
      thresh= 5.866E-07 alpha_mix =  0.700 |ddv_scf|^2 =  8.791E-13

     End of self-consistent calculation

     Convergence has been achieved 


     Representation #   4 modes #   9  10  11  12

     Self-consistent Calculation

      iter #   1 total cpu time :    63.2 secs   av.it.:   9.9
      thresh= 1.000E-02 alpha_mix =  0.700 |ddv_scf|^2 =  6.944E-07

      iter #   2 total cpu time :    65.6 secs   av.it.:  17.7
      thresh= 8.333E-05 alpha_mix =  0.700 |ddv_scf|^2 =  2.473E-07

      iter #   3 total cpu time :    68.0 secs   av.it.:  17.1
      thresh= 4.973E-05 alpha_mix =  0.700 |ddv_scf|^2 =  5.335E-10

      iter #   4 total cpu time :    70.3 secs   av.it.:  17.1
      thresh= 2.310E-06 alpha_mix =  0.700 |ddv_scf|^2 =  4.025E-11

      iter #   5 total cpu time :    72.7 secs   av.it.:  16.7
      thresh= 6.344E-07 alpha_mix =  0.700 |ddv_scf|^2 =  5.810E-13

     End of self-consistent calculation

     Convergence has been achieved 
 
     Number of q in the star =    1
     List of q in the star:
          1   0.000000000   0.000000000  -0.303155055

     Diagonalizing the dynamical matrix

     q = (    0.000000000   0.000000000  -0.303155055 ) 

 **************************************************************************
     freq (    1) =       3.683747 [THz] =     122.876569 [cm-1]
     freq (    2) =       3.683747 [THz] =     122.876569 [cm-1]
     freq (    3) =       3.683747 [THz] =     122.876569 [cm-1]
     freq (    4) =       3.683747 [THz] =     122.876569 [cm-1]
     freq (    5) =       4.421770 [THz] =     147.494369 [cm-1]
     freq (    6) =       4.421770 [THz] =     147.494369 [cm-1]
     freq (    7) =       8.147229 [THz] =     271.762307 [cm-1]
     freq (    8) =       8.147229 [THz] =     271.762307 [cm-1]
     freq (    9) =       9.013724 [THz] =     300.665455 [cm-1]
     freq (   10) =       9.013724 [THz] =     300.665455 [cm-1]
     freq (   11) =       9.013724 [THz] =     300.665455 [cm-1]
     freq (   12) =       9.013724 [THz] =     300.665455 [cm-1]
 **************************************************************************
 
     Number of q in the star =    1
     List of q in the star:
          1   0.000000000   0.000000000  -0.303155055
       Writing drho for q = (  0.000000  0.000000 -0.303155) on file "drho.0_0_-1o2"

     Calculation of q =    0.0000000  -0.5773503   0.0000000
 
     Parallelization info
     --------------------
     sticks:   dense  smooth     PW     G-vecs:    dense   smooth      PW
     Min          29      29      9                 1231     1231     219
     Max          30      30     10                 1240     1240     228
     Sum         955     955    301                39583    39583    7139
 
     Using Slab Decomposition
 

     Title: 
     default                                                                    


     bravais-lattice index     =            0
     lattice parameter (alat)  =       7.6109  a.u.
     unit-cell volume          =     629.7232 (a.u.)^3
     number of atoms/cell      =            4
     number of atomic types    =            1
     number of electrons       =        56.00
     number of Kohn-Sham states=           34
     kinetic-energy cutoff     =      60.0000  Ry
     charge density cutoff     =     240.0000  Ry
     Exchange-correlation= PBE
                           (   1   4   3   4   0   0   0)

     celldm(1)=   7.610934  celldm(2)=   0.000000  celldm(3)=   0.000000
     celldm(4)=   0.000000  celldm(5)=   0.000000  celldm(6)=   0.000000

     crystal axes: (cart. coord. in units of alat)
               a(1) = (   1.000000   0.000000   0.000000 )  
               a(2) = (  -0.500000   0.866025   0.000000 )  
               a(3) = (   0.000000   0.000000   1.649321 )  

     reciprocal axes: (cart. coord. in units 2 pi/alat)
               b(1) = (  1.000000  0.577350  0.000000 )  
               b(2) = (  0.000000  1.154701  0.000000 )  
               b(3) = (  0.000000  0.000000  0.606310 )  


     PseudoPot. # 1 for Ge read from file:
     pseudo/Ge_ONCV_PBE-1.0.upf
     MD5 check sum: 39f69ca9d3fedd83738352a2cbce5cbd
     Pseudo is Norm-conserving, Zval = 14.0
     Generated using ONCVPSP code by D. R. Hamann
     Using radial grid of  602 points,  6 beta functions with: 
                l(1) =   0
                l(2) =   0
                l(3) =   1
                l(4) =   1
                l(5) =   2
                l(6) =   2

     atomic species   valence    mass     pseudopotential
     Ge               14.00    72.64000     Ge( 1.00)

     24 Sym. Ops., with inversion, found



   Cartesian axes

     site n.     atom                  positions (alat units)
         1        Ge     tau(   1) = (  -0.0000000   0.5773503   0.9285368  )
         2        Ge     tau(   2) = (   0.5000000   0.2886751   0.7207842  )
         3        Ge     tau(   3) = (   0.5000000   0.2886751   0.1038763  )
         4        Ge     tau(   4) = (   0.0000000   0.5773503   1.5454447  )

     number of k points=   126  Marzari-Vanderbilt smearing, width (Ry)=  0.0100

     Number of k-points >= 100: set verbosity='high' to print them.

     Dense  grid:    39583 G-vectors     FFT dimensions: (  40,  40,  64)

     Estimated max dynamical RAM per process >       3.45 MB

     Estimated total dynamical RAM >     220.67 MB

     The potential is recalculated from file :
     temp/_ph0/hex_ge.save/charge-density

     Starting wfcs are    0 atomic +   34 random wfcs

     Band Structure Calculation
     Davidson diagonalization with overlap

     ethr =  1.79E-11,  avg # of iterations = 25.5

     total cpu time spent up to now is        9.1 secs

     End of band structure calculation

     Number of k-points >= 100: set verbosity='high' to print the bands.

     the Fermi energy is    10.6039 ev

     Writing config to output data dir temp/_ph0/hex_ge.save/ :
     XML data file

     default                                                                    

     bravais-lattice index     =            0
     lattice parameter (alat)  =       7.6109  a.u.
     unit-cell volume          =     629.7232 (a.u.)^3
     number of atoms/cell      =            4
     number of atomic types    =            1
     kinetic-energy cut-off    =      60.0000  Ry
     charge density cut-off    =     240.0000  Ry
     convergence threshold     =      1.0E-12
     beta                      =       0.7000
     number of iterations used =            4
     Exchange-correlation= PBE
                           (   1   4   3   4   0   0   0)


     celldm(1)=    7.61093  celldm(2)=    0.00000  celldm(3)=    0.00000
     celldm(4)=    0.00000  celldm(5)=    0.00000  celldm(6)=    0.00000

     crystal axes: (cart. coord. in units of alat)
               a(1) = (  1.0000  0.0000  0.0000 )  
               a(2) = ( -0.5000  0.8660  0.0000 )  
               a(3) = (  0.0000  0.0000  1.6493 )  

     reciprocal axes: (cart. coord. in units 2 pi/alat)
               b(1) = (  1.0000  0.5774  0.0000 )  
               b(2) = (  0.0000  1.1547  0.0000 )  
               b(3) = (  0.0000  0.0000  0.6063 )  


     Atoms inside the unit cell: 

     Cartesian axes

     site n.  atom      mass           positions (alat units)
        1  Ge     72.6400   tau(    1) = (   -0.00000    0.57735    0.92854  )
        2  Ge     72.6400   tau(    2) = (    0.50000    0.28868    0.72078  )
        3  Ge     72.6400   tau(    3) = (    0.50000    0.28868    0.10388  )
        4  Ge     72.6400   tau(    4) = (    0.00000    0.57735    1.54544  )

     Computing dynamical matrix for 
                    q = (   0.0000000  -0.5773503   0.0000000 )
 
      9 Sym.Ops. (with q -> -q+G )


     G cutoff =  352.1498  (   1240 G-vectors)     FFT grid: ( 40, 40, 64)

     number of k points=   126  Marzari-Vanderbilt smearing, width (Ry)=  0.0100

     PseudoPot. # 1 for Ge read from file:
     pseudo/Ge_ONCV_PBE-1.0.upf
     MD5 check sum: 39f69ca9d3fedd83738352a2cbce5cbd
     Pseudo is Norm-conserving, Zval = 14.0
     Generated using ONCVPSP code by D. R. Hamann
     Using radial grid of  602 points,  6 beta functions with: 
                l(1) =   0
                l(2) =   0
                l(3) =   1
                l(4) =   1
                l(5) =   2
                l(6) =   2

     Mode symmetry, D_2h (mmm)  point group:


     Atomic displacements:
     There are   12 irreducible representations

     Representation     1      1 modes -  To be done

     Representation     2      1 modes -  To be done

     Representation     3      1 modes -  To be done

     Representation     4      1 modes -  To be done

     Representation     5      1 modes -  To be done

     Representation     6      1 modes -  To be done

     Representation     7      1 modes -  To be done

     Representation     8      1 modes -  To be done

     Representation     9      1 modes -  To be done

     Representation    10      1 modes -  To be done

     Representation    11      1 modes -  To be done

     Representation    12      1 modes -  To be done



     Alpha used in Ewald sum =   2.2000
     PHONON       :   1m15.39s CPU   1m19.20s WALL



     Representation #   1 mode #   1

     Self-consistent Calculation

      iter #   1 total cpu time :    80.0 secs   av.it.:   9.9
      thresh= 1.000E-02 alpha_mix =  0.700 |ddv_scf|^2 =  6.009E-05

      iter #   2 total cpu time :    81.0 secs   av.it.:  14.3
      thresh= 7.752E-04 alpha_mix =  0.700 |ddv_scf|^2 =  1.152E-04

      iter #   3 total cpu time :    81.9 secs   av.it.:  12.5
      thresh= 1.073E-03 alpha_mix =  0.700 |ddv_scf|^2 =  6.622E-06

      iter #   4 total cpu time :    82.8 secs   av.it.:  12.3
      thresh= 2.573E-04 alpha_mix =  0.700 |ddv_scf|^2 =  2.847E-08

      iter #   5 total cpu time :    83.9 secs   av.it.:  13.9
      thresh= 1.687E-05 alpha_mix =  0.700 |ddv_scf|^2 =  1.187E-09

      iter #   6 total cpu time :    84.8 secs   av.it.:  13.1
      thresh= 3.445E-06 alpha_mix =  0.700 |ddv_scf|^2 =  3.139E-11

      iter #   7 total cpu time :    85.8 secs   av.it.:  13.2
      thresh= 5.602E-07 alpha_mix =  0.700 |ddv_scf|^2 =  2.590E-12

      iter #   8 total cpu time :    86.8 secs   av.it.:  13.2
      thresh= 1.609E-07 alpha_mix =  0.700 |ddv_scf|^2 =  5.855E-14

     End of self-consistent calculation

     Convergence has been achieved 


     Representation #   2 mode #   2

     Self-consistent Calculation

      iter #   1 total cpu time :    87.6 secs   av.it.:  10.1
      thresh= 1.000E-02 alpha_mix =  0.700 |ddv_scf|^2 =  3.337E-04

      iter #   2 total cpu time :    88.6 secs   av.it.:  14.0
      thresh= 1.827E-03 alpha_mix =  0.700 |ddv_scf|^2 =  1.506E-03

      iter #   3 total cpu time :    89.5 secs   av.it.:  11.7
      thresh= 3.881E-03 alpha_mix =  0.700 |ddv_scf|^2 =  2.780E-06

      iter #   4 total cpu time :    90.5 secs   av.it.:  13.3
      thresh= 1.667E-04 alpha_mix =  0.700 |ddv_scf|^2 =  6.286E-08

      iter #   5 total cpu time :    91.4 secs   av.it.:  13.2
      thresh= 2.507E-05 alpha_mix =  0.700 |ddv_scf|^2 =  3.522E-09

      iter #   6 total cpu time :    92.4 secs   av.it.:  13.4
      thresh= 5.935E-06 alpha_mix =  0.700 |ddv_scf|^2 =  5.089E-11

      iter #   7 total cpu time :    93.4 secs   av.it.:  13.1
      thresh= 7.133E-07 alpha_mix =  0.700 |ddv_scf|^2 =  2.099E-11

      iter #   8 total cpu time :    94.3 secs   av.it.:  12.5
      thresh= 4.581E-07 alpha_mix =  0.700 |ddv_scf|^2 =  4.496E-14

     End of self-consistent calculation

     Convergence has been achieved 


     Representation #   3 mode #   3

     Self-consistent Calculation

      iter #   1 total cpu time :    95.1 secs   av.it.:   9.2
      thresh= 1.000E-02 alpha_mix =  0.700 |ddv_scf|^2 =  7.096E-06

      iter #   2 total cpu time :    96.1 secs   av.it.:  14.6
      thresh= 2.664E-04 alpha_mix =  0.700 |ddv_scf|^2 =  1.986E-06

      iter #   3 total cpu time :    97.1 secs   av.it.:  14.0
      thresh= 1.409E-04 alpha_mix =  0.700 |ddv_scf|^2 =  1.571E-09

      iter #   4 total cpu time :    98.1 secs   av.it.:  12.9
      thresh= 3.963E-06 alpha_mix =  0.700 |ddv_scf|^2 =  2.202E-11

      iter #   5 total cpu time :    99.0 secs   av.it.:  12.8
      thresh= 4.693E-07 alpha_mix =  0.700 |ddv_scf|^2 =  1.335E-12

      iter #   6 total cpu time :   100.1 secs   av.it.:  14.0
      thresh= 1.155E-07 alpha_mix =  0.700 |ddv_scf|^2 =  1.392E-14

     End of self-consistent calculation

     Convergence has been achieved 


     Representation #   4 mode #   4

     Self-consistent Calculation

      iter #   1 total cpu time :   100.9 secs   av.it.:   9.8
      thresh= 1.000E-02 alpha_mix =  0.700 |ddv_scf|^2 =  4.004E-05

      iter #   2 total cpu time :   101.9 secs   av.it.:  14.5
      thresh= 6.328E-04 alpha_mix =  0.700 |ddv_scf|^2 =  5.144E-05

      iter #   3 total cpu time :   102.8 secs   av.it.:  13.1
      thresh= 7.172E-04 alpha_mix =  0.700 |ddv_scf|^2 =  1.574E-07

      iter #   4 total cpu time :   103.9 secs   av.it.:  14.1
      thresh= 3.967E-05 alpha_mix =  0.700 |ddv_scf|^2 =  9.083E-10

      iter #   5 total cpu time :   104.8 secs   av.it.:  13.2
      thresh= 3.014E-06 alpha_mix =  0.700 |ddv_scf|^2 =  6.194E-11

      iter #   6 total cpu time :   105.9 secs   av.it.:  14.1
      thresh= 7.870E-07 alpha_mix =  0.700 |ddv_scf|^2 =  5.772E-12

      iter #   7 total cpu time :   106.9 secs   av.it.:  14.2
      thresh= 2.403E-07 alpha_mix =  0.700 |ddv_scf|^2 =  2.532E-13

     End of self-consistent calculation

     Convergence has been achieved 


     Representation #   5 mode #   5

     Self-consistent Calculation

      iter #   1 total cpu time :   107.7 secs   av.it.:   9.5
      thresh= 1.000E-02 alpha_mix =  0.700 |ddv_scf|^2 =  2.136E-05

      iter #   2 total cpu time :   108.7 secs   av.it.:  14.6
      thresh= 4.621E-04 alpha_mix =  0.700 |ddv_scf|^2 =  2.379E-05

      iter #   3 total cpu time :   109.7 secs   av.it.:  13.2
      thresh= 4.878E-04 alpha_mix =  0.700 |ddv_scf|^2 =  1.887E-07

      iter #   4 total cpu time :   110.7 secs   av.it.:  14.0
      thresh= 4.343E-05 alpha_mix =  0.700 |ddv_scf|^2 =  1.076E-09

      iter #   5 total cpu time :   111.7 secs   av.it.:  13.2
      thresh= 3.280E-06 alpha_mix =  0.700 |ddv_scf|^2 =  4.547E-11

      iter #   6 total cpu time :   112.7 secs   av.it.:  14.3
      thresh= 6.743E-07 alpha_mix =  0.700 |ddv_scf|^2 =  4.456E-12

      iter #   7 total cpu time :   113.8 secs   av.it.:  14.2
      thresh= 2.111E-07 alpha_mix =  0.700 |ddv_scf|^2 =  2.546E-13

     End of self-consistent calculation

     Convergence has been achieved 


     Representation #   6 mode #   6

     Self-consistent Calculation

      iter #   1 total cpu time :   114.6 secs   av.it.:   8.9
      thresh= 1.000E-02 alpha_mix =  0.700 |ddv_scf|^2 =  4.789E-06

      iter #   2 total cpu time :   115.6 secs   av.it.:  14.6
      thresh= 2.188E-04 alpha_mix =  0.700 |ddv_scf|^2 =  1.000E-06

      iter #   3 total cpu time :   116.6 secs   av.it.:  14.0
      thresh= 1.000E-04 alpha_mix =  0.700 |ddv_scf|^2 =  1.835E-09

      iter #   4 total cpu time :   117.6 secs   av.it.:  13.3
      thresh= 4.283E-06 alpha_mix =  0.700 |ddv_scf|^2 =  1.159E-11

      iter #   5 total cpu time :   118.6 secs   av.it.:  13.2
      thresh= 3.404E-07 alpha_mix =  0.700 |ddv_scf|^2 =  2.809E-13

     End of self-consistent calculation

     Convergence has been achieved 


     Representation #   7 mode #   7

     Self-consistent Calculation

      iter #   1 total cpu time :   119.4 secs   av.it.:   9.6
      thresh= 1.000E-02 alpha_mix =  0.700 |ddv_scf|^2 =  2.081E-05

      iter #   2 total cpu time :   120.4 secs   av.it.:  14.7
      thresh= 4.562E-04 alpha_mix =  0.700 |ddv_scf|^2 =  1.070E-05

      iter #   3 total cpu time :   121.4 secs   av.it.:  13.7
      thresh= 3.272E-04 alpha_mix =  0.700 |ddv_scf|^2 =  1.936E-09

      iter #   4 total cpu time :   122.4 secs   av.it.:  13.5
      thresh= 4.400E-06 alpha_mix =  0.700 |ddv_scf|^2 =  6.958E-11

      iter #   5 total cpu time :   123.3 secs   av.it.:  12.8
      thresh= 8.341E-07 alpha_mix =  0.700 |ddv_scf|^2 =  1.505E-12

      iter #   6 total cpu time :   124.3 secs   av.it.:  13.8
      thresh= 1.227E-07 alpha_mix =  0.700 |ddv_scf|^2 =  2.531E-14

     End of self-consistent calculation

     Convergence has been achieved 


     Representation #   8 mode #   8

     Self-consistent Calculation

      iter #   1 total cpu time :   125.1 secs   av.it.:   9.3
      thresh= 1.000E-02 alpha_mix =  0.700 |ddv_scf|^2 =  8.915E-06

      iter #   2 total cpu time :   126.2 secs   av.it.:  14.7
      thresh= 2.986E-04 alpha_mix =  0.700 |ddv_scf|^2 =  5.781E-06

      iter #   3 total cpu time :   127.2 secs   av.it.:  13.5
      thresh= 2.404E-04 alpha_mix =  0.700 |ddv_scf|^2 =  1.602E-07

      iter #   4 total cpu time :   128.2 secs   av.it.:  13.5
      thresh= 4.002E-05 alpha_mix =  0.700 |ddv_scf|^2 =  8.535E-10

      iter #   5 total cpu time :   129.2 secs   av.it.:  14.1
      thresh= 2.921E-06 alpha_mix =  0.700 |ddv_scf|^2 =  4.786E-11

      iter #   6 total cpu time :   130.2 secs   av.it.:  14.3
      thresh= 6.918E-07 alpha_mix =  0.700 |ddv_scf|^2 =  1.568E-12

      iter #   7 total cpu time :   131.2 secs   av.it.:  13.9
      thresh= 1.252E-07 alpha_mix =  0.700 |ddv_scf|^2 =  1.177E-13

     End of self-consistent calculation

     Convergence has been achieved 


     Representation #   9 mode #   9

     Self-consistent Calculation

      iter #   1 total cpu time :   132.1 secs   av.it.:   9.5
      thresh= 1.000E-02 alpha_mix =  0.700 |ddv_scf|^2 =  2.209E-05

      iter #   2 total cpu time :   133.1 secs   av.it.:  14.5
      thresh= 4.700E-04 alpha_mix =  0.700 |ddv_scf|^2 =  2.180E-05

      iter #   3 total cpu time :   134.1 secs   av.it.:  13.2
      thresh= 4.669E-04 alpha_mix =  0.700 |ddv_scf|^2 =  1.264E-07

      iter #   4 total cpu time :   135.1 secs   av.it.:  14.1
      thresh= 3.555E-05 alpha_mix =  0.700 |ddv_scf|^2 =  9.108E-10

      iter #   5 total cpu time :   136.1 secs   av.it.:  14.1
      thresh= 3.018E-06 alpha_mix =  0.700 |ddv_scf|^2 =  4.405E-11

      iter #   6 total cpu time :   137.1 secs   av.it.:  14.2
      thresh= 6.637E-07 alpha_mix =  0.700 |ddv_scf|^2 =  3.350E-12

      iter #   7 total cpu time :   138.1 secs   av.it.:  13.9
      thresh= 1.830E-07 alpha_mix =  0.700 |ddv_scf|^2 =  2.542E-13

     End of self-consistent calculation

     Convergence has been achieved 


     Representation #  10 mode #  10

     Self-consistent Calculation

      iter #   1 total cpu time :   138.9 secs   av.it.:   9.7
      thresh= 1.000E-02 alpha_mix =  0.700 |ddv_scf|^2 =  3.619E-05

      iter #   2 total cpu time :   140.0 secs   av.it.:  14.6
      thresh= 6.016E-04 alpha_mix =  0.700 |ddv_scf|^2 =  2.782E-05

      iter #   3 total cpu time :   141.0 secs   av.it.:  13.3
      thresh= 5.274E-04 alpha_mix =  0.700 |ddv_scf|^2 =  1.729E-09

      iter #   4 total cpu time :   141.9 secs   av.it.:  12.7
      thresh= 4.158E-06 alpha_mix =  0.700 |ddv_scf|^2 =  9.194E-11

      iter #   5 total cpu time :   142.8 secs   av.it.:  12.4
      thresh= 9.588E-07 alpha_mix =  0.700 |ddv_scf|^2 =  1.160E-12

      iter #   6 total cpu time :   143.8 secs   av.it.:  13.4
      thresh= 1.077E-07 alpha_mix =  0.700 |ddv_scf|^2 =  2.065E-14

     End of self-consistent calculation

     Convergence has been achieved 


     Representation #  11 mode #  11

     Self-consistent Calculation

      iter #   1 total cpu time :   144.7 secs   av.it.:   9.8
      thresh= 1.000E-02 alpha_mix =  0.700 |ddv_scf|^2 =  8.938E-05

      iter #   2 total cpu time :   145.7 secs   av.it.:  14.1
      thresh= 9.454E-04 alpha_mix =  0.700 |ddv_scf|^2 =  2.196E-04

      iter #   3 total cpu time :   146.6 secs   av.it.:  12.0
      thresh= 1.482E-03 alpha_mix =  0.700 |ddv_scf|^2 =  1.259E-06

      iter #   4 total cpu time :   147.6 secs   av.it.:  13.4
      thresh= 1.122E-04 alpha_mix =  0.700 |ddv_scf|^2 =  4.036E-09

      iter #   5 total cpu time :   148.6 secs   av.it.:  14.6
      thresh= 6.353E-06 alpha_mix =  0.700 |ddv_scf|^2 =  7.791E-10

      iter #   6 total cpu time :   149.6 secs   av.it.:  14.0
      thresh= 2.791E-06 alpha_mix =  0.700 |ddv_scf|^2 =  2.279E-11

      iter #   7 total cpu time :   150.6 secs   av.it.:  13.9
      thresh= 4.774E-07 alpha_mix =  0.700 |ddv_scf|^2 =  2.495E-12

      iter #   8 total cpu time :   151.6 secs   av.it.:  13.3
      thresh= 1.580E-07 alpha_mix =  0.700 |ddv_scf|^2 =  9.458E-14

     End of self-consistent calculation

     Convergence has been achieved 


     Representation #  12 mode #  12

     Self-consistent Calculation

      iter #   1 total cpu time :   152.4 secs   av.it.:   9.8
      thresh= 1.000E-02 alpha_mix =  0.700 |ddv_scf|^2 =  2.487E-05

      iter #   2 total cpu time :   153.5 secs   av.it.:  14.6
      thresh= 4.987E-04 alpha_mix =  0.700 |ddv_scf|^2 =  2.108E-05

      iter #   3 total cpu time :   154.4 secs   av.it.:  13.2
      thresh= 4.591E-04 alpha_mix =  0.700 |ddv_scf|^2 =  6.567E-07

      iter #   4 total cpu time :   155.4 secs   av.it.:  12.5
      thresh= 8.104E-05 alpha_mix =  0.700 |ddv_scf|^2 =  1.565E-08

      iter #   5 total cpu time :   156.4 secs   av.it.:  13.6
      thresh= 1.251E-05 alpha_mix =  0.700 |ddv_scf|^2 =  5.825E-10

      iter #   6 total cpu time :   157.4 secs   av.it.:  13.7
      thresh= 2.413E-06 alpha_mix =  0.700 |ddv_scf|^2 =  8.248E-12

      iter #   7 total cpu time :   158.4 secs   av.it.:  13.7
      thresh= 2.872E-07 alpha_mix =  0.700 |ddv_scf|^2 =  7.025E-13

     End of self-consistent calculation

     Convergence has been achieved 
 
     Number of q in the star =    3
     List of q in the star:
          1   0.000000000  -0.577350269   0.000000000
          2   0.500000000   0.288675135   0.000000000
          3  -0.500000000   0.288675134   0.000000000

     Diagonalizing the dynamical matrix

     q = (    0.000000000  -0.577350269   0.000000000 ) 

 **************************************************************************
     freq (    1) =       1.620624 [THz] =      54.058208 [cm-1]
     freq (    2) =       2.512122 [THz] =      83.795378 [cm-1]
     freq (    3) =       3.360065 [THz] =     112.079712 [cm-1]
     freq (    4) =       3.484129 [THz] =     116.218037 [cm-1]
     freq (    5) =       5.159147 [THz] =     172.090620 [cm-1]
     freq (    6) =       5.900922 [THz] =     196.833566 [cm-1]
     freq (    7) =       6.915538 [THz] =     230.677505 [cm-1]
     freq (    8) =       7.241289 [THz] =     241.543401 [cm-1]
     freq (    9) =       7.786925 [THz] =     259.743856 [cm-1]
[...]
     lattice parameter (alat)  =       7.6109  a.u.
     unit-cell volume          =     629.7232 (a.u.)^3
     number of atoms/cell      =            4
     number of atomic types    =            1
     number of electrons       =        56.00
     number of Kohn-Sham states=           34
     kinetic-energy cutoff     =      60.0000  Ry
     charge density cutoff     =     240.0000  Ry
     Exchange-correlation= PBE
                           (   1   4   3   4   0   0   0)

     celldm(1)=   7.610934  celldm(2)=   0.000000  celldm(3)=   0.000000
     celldm(4)=   0.000000  celldm(5)=   0.000000  celldm(6)=   0.000000

     crystal axes: (cart. coord. in units of alat)
               a(1) = (   1.000000   0.000000   0.000000 )  
               a(2) = (  -0.500000   0.866025   0.000000 )  
               a(3) = (   0.000000   0.000000   1.649321 )  

     reciprocal axes: (cart. coord. in units 2 pi/alat)
               b(1) = (  1.000000  0.577350  0.000000 )  
               b(2) = (  0.000000  1.154701  0.000000 )  
               b(3) = (  0.000000  0.000000  0.606310 )  


     PseudoPot. # 1 for Ge read from file:
     pseudo/Ge_ONCV_PBE-1.0.upf
     MD5 check sum: 39f69ca9d3fedd83738352a2cbce5cbd
     Pseudo is Norm-conserving, Zval = 14.0
     Generated using ONCVPSP code by D. R. Hamann
     Using radial grid of  602 points,  6 beta functions with: 
                l(1) =   0
                l(2) =   0
                l(3) =   1
                l(4) =   1
                l(5) =   2
                l(6) =   2

     atomic species   valence    mass     pseudopotential
     Ge               14.00    72.64000     Ge( 1.00)

     24 Sym. Ops., with inversion, found



   Cartesian axes

     site n.     atom                  positions (alat units)
         1        Ge     tau(   1) = (  -0.0000000   0.5773503   0.9285368  )
         2        Ge     tau(   2) = (   0.5000000   0.2886751   0.7207842  )
         3        Ge     tau(   3) = (   0.5000000   0.2886751   0.1038763  )
         4        Ge     tau(   4) = (   0.0000000   0.5773503   1.5454447  )

     number of k points=   126  Marzari-Vanderbilt smearing, width (Ry)=  0.0100

     Number of k-points >= 100: set verbosity='high' to print them.

     Dense  grid:    39583 G-vectors     FFT dimensions: (  40,  40,  64)

     Estimated max dynamical RAM per process >       3.45 MB

     Estimated total dynamical RAM >     221.03 MB

     The potential is recalculated from file :
     temp/_ph0/hex_ge.save/charge-density

     Starting wfcs are    0 atomic +   34 random wfcs

     Band Structure Calculation
     Davidson diagonalization with overlap

     ethr =  1.79E-11,  avg # of iterations = 25.4

     total cpu time spent up to now is       15.3 secs

     End of band structure calculation

     Number of k-points >= 100: set verbosity='high' to print the bands.

     the Fermi energy is    10.6039 ev

     Writing config to output data dir temp/_ph0/hex_ge.save/ :
     XML data file

     default                                                                    

     bravais-lattice index     =            0
     lattice parameter (alat)  =       7.6109  a.u.
     unit-cell volume          =     629.7232 (a.u.)^3
     number of atoms/cell      =            4
     number of atomic types    =            1
     kinetic-energy cut-off    =      60.0000  Ry
     charge density cut-off    =     240.0000  Ry
     convergence threshold     =      1.0E-12
     beta                      =       0.7000
     number of iterations used =            4
     Exchange-correlation= PBE
                           (   1   4   3   4   0   0   0)


     celldm(1)=    7.61093  celldm(2)=    0.00000  celldm(3)=    0.00000
     celldm(4)=    0.00000  celldm(5)=    0.00000  celldm(6)=    0.00000

     crystal axes: (cart. coord. in units of alat)
               a(1) = (  1.0000  0.0000  0.0000 )  
               a(2) = ( -0.5000  0.8660  0.0000 )  
               a(3) = (  0.0000  0.0000  1.6493 )  

     reciprocal axes: (cart. coord. in units 2 pi/alat)
               b(1) = (  1.0000  0.5774  0.0000 )  
               b(2) = (  0.0000  1.1547  0.0000 )  
               b(3) = (  0.0000  0.0000  0.6063 )  


     Atoms inside the unit cell: 

     Cartesian axes

     site n.  atom      mass           positions (alat units)
        1  Ge     72.6400   tau(    1) = (   -0.00000    0.57735    0.92854  )
        2  Ge     72.6400   tau(    2) = (    0.50000    0.28868    0.72078  )
        3  Ge     72.6400   tau(    3) = (    0.50000    0.28868    0.10388  )
        4  Ge     72.6400   tau(    4) = (    0.00000    0.57735    1.54544  )

     Computing dynamical matrix for 
                    q = (   0.0000000  -0.5773503  -0.3031551 )
 
      9 Sym.Ops. (with q -> -q+G )


     G cutoff =  352.1498  (   1240 G-vectors)     FFT grid: ( 40, 40, 64)

     number of k points=   126  Marzari-Vanderbilt smearing, width (Ry)=  0.0100

     PseudoPot. # 1 for Ge read from file:
     pseudo/Ge_ONCV_PBE-1.0.upf
     MD5 check sum: 39f69ca9d3fedd83738352a2cbce5cbd
     Pseudo is Norm-conserving, Zval = 14.0
     Generated using ONCVPSP code by D. R. Hamann
     Using radial grid of  602 points,  6 beta functions with: 
                l(1) =   0
                l(2) =   0
                l(3) =   1
                l(4) =   1
                l(5) =   2
                l(6) =   2


     Atomic displacements:
     There are    6 irreducible representations

     Representation     1      2 modes -  To be done

     Representation     2      2 modes -  To be done

     Representation     3      2 modes -  To be done

     Representation     4      2 modes -  To be done

     Representation     5      2 modes -  To be done

     Representation     6      2 modes -  To be done



     Alpha used in Ewald sum =   2.2000
     PHONON       :   2m37.00s CPU   2m44.84s WALL



     Representation #   1 modes #   1   2

     Self-consistent Calculation

      iter #   1 total cpu time :   166.4 secs   av.it.:   9.7
      thresh= 1.000E-02 alpha_mix =  0.700 |ddv_scf|^2 =  3.684E-06

      iter #   2 total cpu time :   168.8 secs   av.it.:  16.3
      thresh= 1.919E-04 alpha_mix =  0.700 |ddv_scf|^2 =  5.259E-06

      iter #   3 total cpu time :   170.9 secs   av.it.:  14.4
      thresh= 2.293E-04 alpha_mix =  0.700 |ddv_scf|^2 =  1.948E-07

      iter #   4 total cpu time :   173.0 secs   av.it.:  15.0
      thresh= 4.414E-05 alpha_mix =  0.700 |ddv_scf|^2 =  5.744E-09

      iter #   5 total cpu time :   175.1 secs   av.it.:  14.5
      thresh= 7.579E-06 alpha_mix =  0.700 |ddv_scf|^2 =  4.786E-10

      iter #   6 total cpu time :   177.3 secs   av.it.:  14.8
      thresh= 2.188E-06 alpha_mix =  0.700 |ddv_scf|^2 =  4.774E-11

      iter #   7 total cpu time :   179.5 secs   av.it.:  15.7
      thresh= 6.909E-07 alpha_mix =  0.700 |ddv_scf|^2 =  6.432E-12

      iter #   8 total cpu time :   181.7 secs   av.it.:  15.4
      thresh= 2.536E-07 alpha_mix =  0.700 |ddv_scf|^2 =  1.269E-13

     End of self-consistent calculation

     Convergence has been achieved 


     Representation #   2 modes #   3   4

     Self-consistent Calculation

      iter #   1 total cpu time :   183.4 secs   av.it.:  10.0
      thresh= 1.000E-02 alpha_mix =  0.700 |ddv_scf|^2 =  8.306E-06

      iter #   2 total cpu time :   185.7 secs   av.it.:  16.0
      thresh= 2.882E-04 alpha_mix =  0.700 |ddv_scf|^2 =  1.147E-05

      iter #   3 total cpu time :   187.8 secs   av.it.:  14.5
      thresh= 3.386E-04 alpha_mix =  0.700 |ddv_scf|^2 =  3.591E-07

      iter #   4 total cpu time :   189.9 secs   av.it.:  14.8
      thresh= 5.992E-05 alpha_mix =  0.700 |ddv_scf|^2 =  7.686E-09

      iter #   5 total cpu time :   192.0 secs   av.it.:  14.5
      thresh= 8.767E-06 alpha_mix =  0.700 |ddv_scf|^2 =  5.748E-10

      iter #   6 total cpu time :   194.2 secs   av.it.:  15.0
      thresh= 2.398E-06 alpha_mix =  0.700 |ddv_scf|^2 =  4.782E-11

      iter #   7 total cpu time :   196.5 secs   av.it.:  15.8
      thresh= 6.915E-07 alpha_mix =  0.700 |ddv_scf|^2 =  4.740E-12

      iter #   8 total cpu time :   198.7 secs   av.it.:  15.1
      thresh= 2.177E-07 alpha_mix =  0.700 |ddv_scf|^2 =  2.155E-13

     End of self-consistent calculation

     Convergence has been achieved 


     Representation #   3 modes #   5   6

     Self-consistent Calculation

      iter #   1 total cpu time :   200.4 secs   av.it.:  10.5
      thresh= 1.000E-02 alpha_mix =  0.700 |ddv_scf|^2 =  4.209E-05

      iter #   2 total cpu time :   202.6 secs   av.it.:  15.7
      thresh= 6.488E-04 alpha_mix =  0.700 |ddv_scf|^2 =  1.202E-04

      iter #   3 total cpu time :   204.7 secs   av.it.:  14.0
      thresh= 1.097E-03 alpha_mix =  0.700 |ddv_scf|^2 =  1.420E-07

      iter #   4 total cpu time :   206.9 secs   av.it.:  15.4
      thresh= 3.768E-05 alpha_mix =  0.700 |ddv_scf|^2 =  3.670E-09

      iter #   5 total cpu time :   209.1 secs   av.it.:  14.9
      thresh= 6.058E-06 alpha_mix =  0.700 |ddv_scf|^2 =  3.169E-10

      iter #   6 total cpu time :   211.2 secs   av.it.:  15.0
      thresh= 1.780E-06 alpha_mix =  0.700 |ddv_scf|^2 =  3.429E-11

      iter #   7 total cpu time :   213.4 secs   av.it.:  15.3
      thresh= 5.856E-07 alpha_mix =  0.700 |ddv_scf|^2 =  1.444E-11

      iter #   8 total cpu time :   215.6 secs   av.it.:  15.0
      thresh= 3.800E-07 alpha_mix =  0.700 |ddv_scf|^2 =  2.450E-12

      iter #   9 total cpu time :   217.7 secs   av.it.:  14.6
      thresh= 1.565E-07 alpha_mix =  0.700 |ddv_scf|^2 =  7.675E-14

     End of self-consistent calculation

     Convergence has been achieved 


     Representation #   4 modes #   7   8

     Self-consistent Calculation

      iter #   1 total cpu time :   219.3 secs   av.it.:   9.8
      thresh= 1.000E-02 alpha_mix =  0.700 |ddv_scf|^2 =  6.148E-06

      iter #   2 total cpu time :   221.6 secs   av.it.:  16.3
      thresh= 2.479E-04 alpha_mix =  0.700 |ddv_scf|^2 =  3.933E-06

      iter #   3 total cpu time :   223.8 secs   av.it.:  15.3
      thresh= 1.983E-04 alpha_mix =  0.700 |ddv_scf|^2 =  1.823E-09

      iter #   4 total cpu time :   226.1 secs   av.it.:  16.1
      thresh= 4.270E-06 alpha_mix =  0.700 |ddv_scf|^2 =  1.521E-10

      iter #   5 total cpu time :   228.3 secs   av.it.:  15.1
      thresh= 1.233E-06 alpha_mix =  0.700 |ddv_scf|^2 =  3.134E-12

      iter #   6 total cpu time :   230.3 secs   av.it.:  14.1
      thresh= 1.770E-07 alpha_mix =  0.700 |ddv_scf|^2 =  8.586E-14

     End of self-consistent calculation

     Convergence has been achieved 


     Representation #   5 modes #   9  10

     Self-consistent Calculation

      iter #   1 total cpu time :   231.9 secs   av.it.:   9.6
      thresh= 1.000E-02 alpha_mix =  0.700 |ddv_scf|^2 =  2.395E-06

      iter #   2 total cpu time :   234.2 secs   av.it.:  16.4
      thresh= 1.548E-04 alpha_mix =  0.700 |ddv_scf|^2 =  1.059E-06

      iter #   3 total cpu time :   236.4 secs   av.it.:  15.5
      thresh= 1.029E-04 alpha_mix =  0.700 |ddv_scf|^2 =  9.277E-09

      iter #   4 total cpu time :   238.7 secs   av.it.:  15.7
      thresh= 9.632E-06 alpha_mix =  0.700 |ddv_scf|^2 =  1.808E-10

      iter #   5 total cpu time :   240.9 secs   av.it.:  15.2
      thresh= 1.345E-06 alpha_mix =  0.700 |ddv_scf|^2 =  1.840E-12

      iter #   6 total cpu time :   243.1 secs   av.it.:  15.2
      thresh= 1.356E-07 alpha_mix =  0.700 |ddv_scf|^2 =  3.947E-14

     End of self-consistent calculation

     Convergence has been achieved 


     Representation #   6 modes #  11  12

     Self-consistent Calculation

      iter #   1 total cpu time :   244.7 secs   av.it.:   9.9
      thresh= 1.000E-02 alpha_mix =  0.700 |ddv_scf|^2 =  1.172E-05

      iter #   2 total cpu time :   247.0 secs   av.it.:  15.7
      thresh= 3.424E-04 alpha_mix =  0.700 |ddv_scf|^2 =  1.975E-05

      iter #   3 total cpu time :   249.0 secs   av.it.:  14.0
      thresh= 4.444E-04 alpha_mix =  0.700 |ddv_scf|^2 =  9.977E-08

      iter #   4 total cpu time :   251.2 secs   av.it.:  15.5
      thresh= 3.159E-05 alpha_mix =  0.700 |ddv_scf|^2 =  5.345E-09

      iter #   5 total cpu time :   253.3 secs   av.it.:  14.6
      thresh= 7.311E-06 alpha_mix =  0.700 |ddv_scf|^2 =  6.535E-10

      iter #   6 total cpu time :   255.4 secs   av.it.:  14.8
      thresh= 2.556E-06 alpha_mix =  0.700 |ddv_scf|^2 =  5.334E-11

      iter #   7 total cpu time :   257.7 secs   av.it.:  15.7
      thresh= 7.304E-07 alpha_mix =  0.700 |ddv_scf|^2 =  5.679E-12

      iter #   8 total cpu time :   259.9 secs   av.it.:  15.5
      thresh= 2.383E-07 alpha_mix =  0.700 |ddv_scf|^2 =  1.725E-13

     End of self-consistent calculation

     Convergence has been achieved 
 
     Number of q in the star =    3
     List of q in the star:
          1   0.000000000  -0.577350269  -0.303155055
          2   0.500000000   0.288675135   0.303155055
          3  -0.500000000   0.288675134   0.303155055

     Diagonalizing the dynamical matrix

     q = (    0.000000000  -0.577350269  -0.303155055 ) 

 **************************************************************************
     freq (    1) =       2.401577 [THz] =      80.107974 [cm-1]
     freq (    2) =       2.401577 [THz] =      80.107974 [cm-1]
     freq (    3) =       2.892483 [THz] =      96.482857 [cm-1]
     freq (    4) =       2.892483 [THz] =      96.482857 [cm-1]
     freq (    5) =       6.320393 [THz] =     210.825601 [cm-1]
     freq (    6) =       6.320393 [THz] =     210.825601 [cm-1]
     freq (    7) =       6.951152 [THz] =     231.865483 [cm-1]
     freq (    8) =       6.951152 [THz] =     231.865483 [cm-1]
     freq (    9) =       7.994973 [THz] =     266.683580 [cm-1]
     freq (   10) =       7.994973 [THz] =     266.683580 [cm-1]
     freq (   11) =       7.997939 [THz] =     266.782527 [cm-1]
     freq (   12) =       7.997939 [THz] =     266.782527 [cm-1]
 **************************************************************************
 
     Number of q in the star =    3
     List of q in the star:
          1   0.000000000  -0.577350269  -0.303155055
          2   0.500000000   0.288675135   0.303155055
          3  -0.500000000   0.288675134   0.303155055
       Writing drho for q = (  0.000000 -0.577350 -0.303155) on file "drho.0_-1o2_-1o2"
       Writing drho for q = (  0.500000  0.288675  0.303155) on file "drho.1o2_0_1o2"
       Writing drho for q = ( -0.500000  0.288675  0.303155) on file "drho.-1o2_1o2_1o2"
 
     init_run     :      0.03s CPU      0.04s WALL (       3 calls)
     electrons    :     14.96s CPU     15.23s WALL (       3 calls)

     Called by init_run:
     wfcinit      :      0.00s CPU      0.01s WALL (       3 calls)
     potinit      :      0.00s CPU      0.00s WALL (       3 calls)
     hinit0       :      0.00s CPU      0.00s WALL (       3 calls)

     Called by electrons:
     c_bands      :     14.92s CPU     15.19s WALL (       3 calls)
     v_of_rho     :      0.00s CPU      0.01s WALL (       4 calls)

     Called by c_bands:
     init_us_2    :      0.28s CPU      0.30s WALL (    7107 calls)
     cegterg      :     13.49s CPU     13.74s WALL (     300 calls)

     Called by *egterg:
     cdiaghg      :      6.89s CPU      6.95s WALL (    4047 calls)
     h_psi        :    186.78s CPU    194.83s WALL (  180966 calls)
     g_psi        :      0.03s CPU      0.03s WALL (    3889 calls)

     Called by h_psi:
     h_psi:calbec :      9.17s CPU      9.55s WALL (  180966 calls)
     vloc_psi     :    171.88s CPU    179.31s WALL (  180966 calls)
     add_vuspsi   :      4.83s CPU      5.04s WALL (  180966 calls)

     General routines
     calbec       :      9.40s CPU      9.82s WALL (  186538 calls)
     fft          :      0.18s CPU      0.24s WALL (    3585 calls)
     ffts         :      0.33s CPU      0.34s WALL (    4872 calls)
     fftw         :    180.63s CPU    188.88s WALL ( 7172574 calls)
     davcio       :      1.00s CPU      1.23s WALL (   36993 calls)
 
     Parallel routines
 
     PHONON       :   4m 7.85s CPU   4m20.09s WALL

     INITIALIZATION: 
     phq_setup    :      0.02s CPU      0.02s WALL (       4 calls)
     phq_init     :      0.30s CPU      0.32s WALL (       4 calls)
 
     phq_init     :      0.30s CPU      0.32s WALL (       4 calls)
     init_vloc    :      0.02s CPU      0.02s WALL (       4 calls)
     init_us_1    :      0.00s CPU      0.00s WALL (       4 calls)
     init_us_2    :      0.28s CPU      0.30s WALL (    7107 calls)
 
     DYNAMICAL MATRIX:
     dynmat0      :      0.26s CPU      0.27s WALL (       4 calls)
     dynmat_us    :      0.26s CPU      0.27s WALL (       4 calls)
     d2ionq       :      0.00s CPU      0.00s WALL (       4 calls)
     phqscf       :    231.98s CPU    243.65s WALL (       4 calls)
     dynmatrix    :      0.01s CPU      0.01s WALL (       4 calls)
 
     phqscf       :    231.98s CPU    243.65s WALL (       4 calls)
     solve_linter :    231.50s CPU    243.03s WALL (      30 calls)
     sth_kernel   :    220.22s CPU    230.45s WALL (     198 calls)
     h_prec       :      0.14s CPU      0.15s WALL (    5129 calls)
     apply_dpot_b :     10.31s CPU     11.12s WALL (    6431 calls)
     ortho        :      1.00s CPU      1.05s WALL (    7559 calls)
     cgsolve      :    195.33s CPU    203.82s WALL (    7559 calls)
     incdrhoscf   :     12.29s CPU     13.07s WALL (    7559 calls)
                                        0.00s GPU  (    7559 calls)
     dv_of_drho   :      0.17s CPU      0.24s WALL (     309 calls)
     mix_pot      :      0.08s CPU      0.29s WALL (     198 calls)
     ef_shift     :      0.02s CPU      0.02s WALL (      45 calls)
     ef_shift_wfc :      0.00s CPU      0.01s WALL (       8 calls)
     localdos     :      0.21s CPU      0.24s WALL (       8 calls)
     drhodv       :      0.46s CPU      0.49s WALL (      30 calls)
     psymdvscf    :      6.01s CPU      6.10s WALL (     198 calls)
     com_dvloc    :      0.20s CPU      0.21s WALL (    1488 calls)
                                        0.00s GPU  (    1488 calls)
     addcore      :      0.00s CPU      0.00s WALL (     309 calls)
                                        0.00s GPU  (     309 calls)
 
     dvqpsi_us    :      3.62s CPU      3.75s WALL (    1128 calls)
                                        0.00s GPU  (    1128 calls)
     dvqpsi_us_on :      1.28s CPU      1.30s WALL (    1128 calls)
 
     add_vuspsi   :      4.83s CPU      5.04s WALL (  180966 calls)
 
 
      General routines
     calbec       :      9.40s CPU      9.82s WALL (  186538 calls)
     fft          :      0.18s CPU      0.24s WALL (    3585 calls)
     ffts         :      0.33s CPU      0.34s WALL (    4872 calls)
     fftw         :    180.63s CPU    188.88s WALL ( 7172574 calls)
     davcio       :      1.00s CPU      1.23s WALL (   36993 calls)
     write_rec    :      0.06s CPU      0.71s WALL (     228 calls)
 
      Additional routines
     ch_psi       :    190.87s CPU    199.15s WALL (  176619 calls)
     last         :      8.43s CPU      8.79s WALL (  176619 calls)
     Hesh         :      0.40s CPU      0.43s WALL (  176619 calls)
     ch_psi_all_k :      7.69s CPU      8.02s WALL (  176619 calls)
                                        0.00s GPU  (  176619 calls)
     h_psi_bgrp   :    186.96s CPU    195.01s WALL (  180966 calls)
     h_psi        :    186.78s CPU    194.83s WALL (  180966 calls)
     h_psi:pot    :    186.27s CPU    194.29s WALL (  180966 calls)
     h_psi:calbec :      9.17s CPU      9.55s WALL (  180966 calls)
     s_psi_bgrp   :      0.61s CPU      0.63s WALL (  360797 calls)
 
 
     PHONON       :   4m 7.85s CPU   4m20.09s WALL

 
   This run was terminated on:  11:17:49  11Mar2026            

=------------------------------------------------------------------------------=
   JOB DONE.
=------------------------------------------------------------------------------=
