
     Program PWSCF v.7.3.1 starts on  6Feb2026 at 15: 7:31 

     This program is part of the open-source Quantum ESPRESSO suite
     for quantum simulation of materials; please cite
         "P. Giannozzi et al., J. Phys.:Condens. Matter 21 395502 (2009);
         "P. Giannozzi et al., J. Phys.:Condens. Matter 29 465901 (2017);
         "P. Giannozzi et al., J. Chem. Phys. 152 154105 (2020);
          URL http://www.quantum-espresso.org", 
     in publications or presentations arising from this work. More details at
     http://www.quantum-espresso.org/quote

     Parallel version (MPI), running on    48 processors

     MPI processes distributed on     1 nodes
     250770 MiB available memory on the printing compute node when the environment starts

     Waiting for input...
     Reading input from standard input

     Current dimensions of program PWSCF are:
     Max number of different atomic species (ntypx) = 10
     Max number of k-points (npk) =  40000
     Max angular momentum in pseudopotentials (lmaxx) =  4
     Message from routine set_cutoff:
     ecutrho < 4*ecutwfc, are you sure?

     K-points division:     npool     =       2
     R & G space division:  proc/nbgrp/npool/nimage =      24
     Subspace diagonalization in iterative solution of the eigenvalue problem:
     a serial algorithm will be used


     Parallelization info
     --------------------
     sticks:   dense  smooth     PW     G-vecs:    dense   smooth      PW
     Min          35      35     12                 1417     1417     272
     Max          36      36     13                 1428     1428     275
     Sum         859     859    295                34133    34133    6569

     Using Slab Decomposition



     bravais-lattice index     =            0
     lattice parameter (alat)  =       7.2401  a.u.
     unit-cell volume          =     543.2592 (a.u.)^3
     number of atoms/cell      =            4
     number of atomic types    =            1
     number of electrons       =        16.00
     number of Kohn-Sham states=           20
     kinetic-energy cutoff     =      65.0000  Ry
     charge density cutoff     =     240.0000  Ry
     scf convergence threshold =      8.0E-10
     mixing beta               =       0.4000
     number of iterations used =            8  plain     mixing
     Exchange-correlation= SLA-PZ-NOGX-NOGC
                           (   1   1   0   0   0   0   0)

     celldm(1)=   7.240141  celldm(2)=   0.000000  celldm(3)=   0.000000
     celldm(4)=   0.000000  celldm(5)=   0.000000  celldm(6)=   0.000000

     crystal axes: (cart. coord. in units of alat)
               a(1) = (   1.000000   0.000000   0.000000 )  
               a(2) = (  -0.500000   0.866025   0.000000 )  
               a(3) = (   0.000000   0.000000   1.652858 )  

     reciprocal axes: (cart. coord. in units 2 pi/alat)
               b(1) = (  1.000000  0.577350 -0.000000 )  
               b(2) = (  0.000000  1.154701  0.000000 )  
               b(3) = (  0.000000 -0.000000  0.605013 )  


     PseudoPot. # 1 for Si read from file:
     pseudo/Si.pz-hgh.UPF
     MD5 check sum: cb84f9316d534d44e00c22e249e735ab
     Pseudo is Norm-conserving, Zval =  4.0
     Generated in analytical, separable form
     Using radial grid of 1141 points,  3 beta functions with: 
                l(1) =   0
                l(2) =   0
                l(3) =   1

     atomic species   valence    mass     pseudopotential
     Si                4.00    28.08550     Si( 1.00)

     No symmetry found


                                    s                        frac. trans.

      isym =  1     identity                                     

 cryst.   s( 1) = (     1          0          0      )
                  (     0          1          0      )
                  (     0          0          1      )

 cart.    s( 1) = (  1.0000000  0.0000000  0.0000000 )
                  (  0.0000000  1.0000000  0.0000000 )
                  (  0.0000000  0.0000000  1.0000000 )


   Cartesian axes

     site n.     atom                  positions (alat units)
         1        Si     tau(   1) = (  -0.0000000   0.5773503   0.1041457  )
         2        Si     tau(   2) = (   0.5000000   0.2886751   0.9305745  )
         3        Si     tau(   3) = (  -0.0000000   0.5773503   0.7222830  )
         4        Si     tau(   4) = (   0.5000000   0.2886751   1.5487118  )

   Crystallographic axes

     site n.     atom                  positions (cryst. coord.)
         1        Si     tau(   1) = (  0.3333333  0.6666667  0.0630095  )
         2        Si     tau(   2) = (  0.6666667  0.3333333  0.5630095  )
         3        Si     tau(   3) = (  0.3333333  0.6666667  0.4369905  )
         4        Si     tau(   4) = (  0.6666667  0.3333333  0.9369905  )

     number of k points=   500  Marzari-Vanderbilt smearing, width (Ry)=  0.0147
                       cart. coord. in units 2pi/alat
        k(    1) = (   0.0000000   0.0000000   0.0000000), wk =   0.0040000
        k(    2) = (   0.0000000   0.0000000   0.1210026), wk =   0.0040000
        k(    3) = (   0.0000000   0.0000000   0.2420051), wk =   0.0040000
        k(    4) = (   0.0000000   0.0000000  -0.2420051), wk =   0.0040000
        k(    5) = (   0.0000000   0.0000000  -0.1210026), wk =   0.0040000
        k(    6) = (   0.0000000   0.1154701   0.0000000), wk =   0.0040000
        k(    7) = (   0.0000000   0.1154701   0.1210026), wk =   0.0040000
        k(    8) = (   0.0000000   0.1154701   0.2420051), wk =   0.0040000
        k(    9) = (   0.0000000   0.1154701  -0.2420051), wk =   0.0040000
        k(   10) = (   0.0000000   0.1154701  -0.1210026), wk =   0.0040000
        k(   11) = (   0.0000000   0.2309401   0.0000000), wk =   0.0040000
        k(   12) = (   0.0000000   0.2309401   0.1210026), wk =   0.0040000
        k(   13) = (   0.0000000   0.2309401   0.2420051), wk =   0.0040000
        k(   14) = (   0.0000000   0.2309401  -0.2420051), wk =   0.0040000
        k(   15) = (   0.0000000   0.2309401  -0.1210026), wk =   0.0040000
        k(   16) = (   0.0000000   0.3464102   0.0000000), wk =   0.0040000
        k(   17) = (   0.0000000   0.3464102   0.1210026), wk =   0.0040000
        k(   18) = (   0.0000000   0.3464102   0.2420051), wk =   0.0040000
        k(   19) = (   0.0000000   0.3464102  -0.2420051), wk =   0.0040000
        k(   20) = (   0.0000000   0.3464102  -0.1210026), wk =   0.0040000
        k(   21) = (   0.0000000   0.4618802   0.0000000), wk =   0.0040000
        k(   22) = (   0.0000000   0.4618802   0.1210026), wk =   0.0040000
        k(   23) = (   0.0000000   0.4618802   0.2420051), wk =   0.0040000
        k(   24) = (   0.0000000   0.4618802  -0.2420051), wk =   0.0040000
        k(   25) = (   0.0000000   0.4618802  -0.1210026), wk =   0.0040000
        k(   26) = (   0.0000000  -0.5773503   0.0000000), wk =   0.0040000
        k(   27) = (   0.0000000  -0.5773503   0.1210026), wk =   0.0040000
        k(   28) = (   0.0000000  -0.5773503   0.2420051), wk =   0.0040000
        k(   29) = (   0.0000000  -0.5773503  -0.2420051), wk =   0.0040000
        k(   30) = (   0.0000000  -0.5773503  -0.1210026), wk =   0.0040000
        k(   31) = (   0.0000000  -0.4618802   0.0000000), wk =   0.0040000
        k(   32) = (   0.0000000  -0.4618802   0.1210026), wk =   0.0040000
        k(   33) = (   0.0000000  -0.4618802   0.2420051), wk =   0.0040000
        k(   34) = (   0.0000000  -0.4618802  -0.2420051), wk =   0.0040000
        k(   35) = (   0.0000000  -0.4618802  -0.1210026), wk =   0.0040000
        k(   36) = (   0.0000000  -0.3464102   0.0000000), wk =   0.0040000
        k(   37) = (   0.0000000  -0.3464102   0.1210026), wk =   0.0040000
        k(   38) = (   0.0000000  -0.3464102   0.2420051), wk =   0.0040000
        k(   39) = (   0.0000000  -0.3464102  -0.2420051), wk =   0.0040000
        k(   40) = (   0.0000000  -0.3464102  -0.1210026), wk =   0.0040000
        k(   41) = (   0.0000000  -0.2309401   0.0000000), wk =   0.0040000
        k(   42) = (   0.0000000  -0.2309401   0.1210026), wk =   0.0040000
        k(   43) = (   0.0000000  -0.2309401   0.2420051), wk =   0.0040000
        k(   44) = (   0.0000000  -0.2309401  -0.2420051), wk =   0.0040000
        k(   45) = (   0.0000000  -0.2309401  -0.1210026), wk =   0.0040000
        k(   46) = (   0.0000000  -0.1154701   0.0000000), wk =   0.0040000
        k(   47) = (   0.0000000  -0.1154701   0.1210026), wk =   0.0040000
        k(   48) = (   0.0000000  -0.1154701   0.2420051), wk =   0.0040000
        k(   49) = (   0.0000000  -0.1154701  -0.2420051), wk =   0.0040000
        k(   50) = (   0.0000000  -0.1154701  -0.1210026), wk =   0.0040000
        k(   51) = (   0.1000000   0.0577350   0.0000000), wk =   0.0040000
        k(   52) = (   0.1000000   0.0577350   0.1210026), wk =   0.0040000
        k(   53) = (   0.1000000   0.0577350   0.2420051), wk =   0.0040000
        k(   54) = (   0.1000000   0.0577350  -0.2420051), wk =   0.0040000
        k(   55) = (   0.1000000   0.0577350  -0.1210026), wk =   0.0040000
        k(   56) = (   0.1000000   0.1732051   0.0000000), wk =   0.0040000
        k(   57) = (   0.1000000   0.1732051   0.1210026), wk =   0.0040000
        k(   58) = (   0.1000000   0.1732051   0.2420051), wk =   0.0040000
        k(   59) = (   0.1000000   0.1732051  -0.2420051), wk =   0.0040000
        k(   60) = (   0.1000000   0.1732051  -0.1210026), wk =   0.0040000
        k(   61) = (   0.1000000   0.2886751   0.0000000), wk =   0.0040000
        k(   62) = (   0.1000000   0.2886751   0.1210026), wk =   0.0040000
        k(   63) = (   0.1000000   0.2886751   0.2420051), wk =   0.0040000
        k(   64) = (   0.1000000   0.2886751  -0.2420051), wk =   0.0040000
        k(   65) = (   0.1000000   0.2886751  -0.1210026), wk =   0.0040000
        k(   66) = (   0.1000000   0.4041452   0.0000000), wk =   0.0040000
        k(   67) = (   0.1000000   0.4041452   0.1210026), wk =   0.0040000
        k(   68) = (   0.1000000   0.4041452   0.2420051), wk =   0.0040000
        k(   69) = (   0.1000000   0.4041452  -0.2420051), wk =   0.0040000
        k(   70) = (   0.1000000   0.4041452  -0.1210026), wk =   0.0040000
        k(   71) = (   0.1000000   0.5196152   0.0000000), wk =   0.0040000
        k(   72) = (   0.1000000   0.5196152   0.1210026), wk =   0.0040000
        k(   73) = (   0.1000000   0.5196152   0.2420051), wk =   0.0040000
        k(   74) = (   0.1000000   0.5196152  -0.2420051), wk =   0.0040000
        k(   75) = (   0.1000000   0.5196152  -0.1210026), wk =   0.0040000
        k(   76) = (   0.1000000  -0.5196152   0.0000000), wk =   0.0040000
        k(   77) = (   0.1000000  -0.5196152   0.1210026), wk =   0.0040000
        k(   78) = (   0.1000000  -0.5196152   0.2420051), wk =   0.0040000
        k(   79) = (   0.1000000  -0.5196152  -0.2420051), wk =   0.0040000
        k(   80) = (   0.1000000  -0.5196152  -0.1210026), wk =   0.0040000
        k(   81) = (   0.1000000  -0.4041452   0.0000000), wk =   0.0040000
        k(   82) = (   0.1000000  -0.4041452   0.1210026), wk =   0.0040000
        k(   83) = (   0.1000000  -0.4041452   0.2420051), wk =   0.0040000
        k(   84) = (   0.1000000  -0.4041452  -0.2420051), wk =   0.0040000
        k(   85) = (   0.1000000  -0.4041452  -0.1210026), wk =   0.0040000
        k(   86) = (   0.1000000  -0.2886751   0.0000000), wk =   0.0040000
        k(   87) = (   0.1000000  -0.2886751   0.1210026), wk =   0.0040000
        k(   88) = (   0.1000000  -0.2886751   0.2420051), wk =   0.0040000
        k(   89) = (   0.1000000  -0.2886751  -0.2420051), wk =   0.0040000
        k(   90) = (   0.1000000  -0.2886751  -0.1210026), wk =   0.0040000
        k(   91) = (   0.1000000  -0.1732051   0.0000000), wk =   0.0040000
        k(   92) = (   0.1000000  -0.1732051   0.1210026), wk =   0.0040000
        k(   93) = (   0.1000000  -0.1732051   0.2420051), wk =   0.0040000
        k(   94) = (   0.1000000  -0.1732051  -0.2420051), wk =   0.0040000
        k(   95) = (   0.1000000  -0.1732051  -0.1210026), wk =   0.0040000
        k(   96) = (   0.1000000  -0.0577350   0.0000000), wk =   0.0040000
        k(   97) = (   0.1000000  -0.0577350   0.1210026), wk =   0.0040000
        k(   98) = (   0.1000000  -0.0577350   0.2420051), wk =   0.0040000
        k(   99) = (   0.1000000  -0.0577350  -0.2420051), wk =   0.0040000
        k(  100) = (   0.1000000  -0.0577350  -0.1210026), wk =   0.0040000
        k(  101) = (   0.2000000   0.1154701   0.0000000), wk =   0.0040000
        k(  102) = (   0.2000000   0.1154701   0.1210026), wk =   0.0040000
        k(  103) = (   0.2000000   0.1154701   0.2420051), wk =   0.0040000
        k(  104) = (   0.2000000   0.1154701  -0.2420051), wk =   0.0040000
        k(  105) = (   0.2000000   0.1154701  -0.1210026), wk =   0.0040000
        k(  106) = (   0.2000000   0.2309401   0.0000000), wk =   0.0040000
        k(  107) = (   0.2000000   0.2309401   0.1210026), wk =   0.0040000
        k(  108) = (   0.2000000   0.2309401   0.2420051), wk =   0.0040000
        k(  109) = (   0.2000000   0.2309401  -0.2420051), wk =   0.0040000
        k(  110) = (   0.2000000   0.2309401  -0.1210026), wk =   0.0040000
        k(  111) = (   0.2000000   0.3464102   0.0000000), wk =   0.0040000
        k(  112) = (   0.2000000   0.3464102   0.1210026), wk =   0.0040000
        k(  113) = (   0.2000000   0.3464102   0.2420051), wk =   0.0040000
        k(  114) = (   0.2000000   0.3464102  -0.2420051), wk =   0.0040000
        k(  115) = (   0.2000000   0.3464102  -0.1210026), wk =   0.0040000
        k(  116) = (   0.2000000   0.4618802   0.0000000), wk =   0.0040000
        k(  117) = (   0.2000000   0.4618802   0.1210026), wk =   0.0040000
        k(  118) = (   0.2000000   0.4618802   0.2420051), wk =   0.0040000
        k(  119) = (   0.2000000   0.4618802  -0.2420051), wk =   0.0040000
        k(  120) = (   0.2000000   0.4618802  -0.1210026), wk =   0.0040000
        k(  121) = (   0.2000000   0.5773503   0.0000000), wk =   0.0040000
        k(  122) = (   0.2000000   0.5773503   0.1210026), wk =   0.0040000
        k(  123) = (   0.2000000   0.5773503   0.2420051), wk =   0.0040000
        k(  124) = (   0.2000000   0.5773503  -0.2420051), wk =   0.0040000
        k(  125) = (   0.2000000   0.5773503  -0.1210026), wk =   0.0040000
        k(  126) = (   0.2000000  -0.4618802   0.0000000), wk =   0.0040000
        k(  127) = (   0.2000000  -0.4618802   0.1210026), wk =   0.0040000
        k(  128) = (   0.2000000  -0.4618802   0.2420051), wk =   0.0040000
        k(  129) = (   0.2000000  -0.4618802  -0.2420051), wk =   0.0040000
        k(  130) = (   0.2000000  -0.4618802  -0.1210026), wk =   0.0040000
        k(  131) = (   0.2000000  -0.3464102   0.0000000), wk =   0.0040000
        k(  132) = (   0.2000000  -0.3464102   0.1210026), wk =   0.0040000
        k(  133) = (   0.2000000  -0.3464102   0.2420051), wk =   0.0040000
        k(  134) = (   0.2000000  -0.3464102  -0.2420051), wk =   0.0040000
        k(  135) = (   0.2000000  -0.3464102  -0.1210026), wk =   0.0040000
        k(  136) = (   0.2000000  -0.2309401   0.0000000), wk =   0.0040000
        k(  137) = (   0.2000000  -0.2309401   0.1210026), wk =   0.0040000
        k(  138) = (   0.2000000  -0.2309401   0.2420051), wk =   0.0040000
        k(  139) = (   0.2000000  -0.2309401  -0.2420051), wk =   0.0040000
        k(  140) = (   0.2000000  -0.2309401  -0.1210026), wk =   0.0040000
        k(  141) = (   0.2000000  -0.1154701   0.0000000), wk =   0.0040000
        k(  142) = (   0.2000000  -0.1154701   0.1210026), wk =   0.0040000
        k(  143) = (   0.2000000  -0.1154701   0.2420051), wk =   0.0040000
        k(  144) = (   0.2000000  -0.1154701  -0.2420051), wk =   0.0040000
        k(  145) = (   0.2000000  -0.1154701  -0.1210026), wk =   0.0040000
        k(  146) = (   0.2000000   0.0000000   0.0000000), wk =   0.0040000
        k(  147) = (   0.2000000   0.0000000   0.1210026), wk =   0.0040000
        k(  148) = (   0.2000000   0.0000000   0.2420051), wk =   0.0040000
        k(  149) = (   0.2000000   0.0000000  -0.2420051), wk =   0.0040000
        k(  150) = (   0.2000000   0.0000000  -0.1210026), wk =   0.0040000
        k(  151) = (   0.3000000   0.1732051   0.0000000), wk =   0.0040000
        k(  152) = (   0.3000000   0.1732051   0.1210026), wk =   0.0040000
        k(  153) = (   0.3000000   0.1732051   0.2420051), wk =   0.0040000
        k(  154) = (   0.3000000   0.1732051  -0.2420051), wk =   0.0040000
        k(  155) = (   0.3000000   0.1732051  -0.1210026), wk =   0.0040000
        k(  156) = (   0.3000000   0.2886751   0.0000000), wk =   0.0040000
        k(  157) = (   0.3000000   0.2886751   0.1210026), wk =   0.0040000
        k(  158) = (   0.3000000   0.2886751   0.2420051), wk =   0.0040000
        k(  159) = (   0.3000000   0.2886751  -0.2420051), wk =   0.0040000
        k(  160) = (   0.3000000   0.2886751  -0.1210026), wk =   0.0040000
        k(  161) = (   0.3000000   0.4041452   0.0000000), wk =   0.0040000
        k(  162) = (   0.3000000   0.4041452   0.1210026), wk =   0.0040000
        k(  163) = (   0.3000000   0.4041452   0.2420051), wk =   0.0040000
        k(  164) = (   0.3000000   0.4041452  -0.2420051), wk =   0.0040000
        k(  165) = (   0.3000000   0.4041452  -0.1210026), wk =   0.0040000
        k(  166) = (   0.3000000   0.5196152   0.0000000), wk =   0.0040000
        k(  167) = (   0.3000000   0.5196152   0.1210026), wk =   0.0040000
        k(  168) = (   0.3000000   0.5196152   0.2420051), wk =   0.0040000
        k(  169) = (   0.3000000   0.5196152  -0.2420051), wk =   0.0040000
        k(  170) = (   0.3000000   0.5196152  -0.1210026), wk =   0.0040000
        k(  171) = (   0.3000000   0.6350853   0.0000000), wk =   0.0040000
        k(  172) = (   0.3000000   0.6350853   0.1210026), wk =   0.0040000
        k(  173) = (   0.3000000   0.6350853   0.2420051), wk =   0.0040000
        k(  174) = (   0.3000000   0.6350853  -0.2420051), wk =   0.0040000
        k(  175) = (   0.3000000   0.6350853  -0.1210026), wk =   0.0040000
        k(  176) = (   0.3000000  -0.4041452   0.0000000), wk =   0.0040000
        k(  177) = (   0.3000000  -0.4041452   0.1210026), wk =   0.0040000
        k(  178) = (   0.3000000  -0.4041452   0.2420051), wk =   0.0040000
        k(  179) = (   0.3000000  -0.4041452  -0.2420051), wk =   0.0040000
        k(  180) = (   0.3000000  -0.4041452  -0.1210026), wk =   0.0040000
        k(  181) = (   0.3000000  -0.2886751   0.0000000), wk =   0.0040000
        k(  182) = (   0.3000000  -0.2886751   0.1210026), wk =   0.0040000
        k(  183) = (   0.3000000  -0.2886751   0.2420051), wk =   0.0040000
        k(  184) = (   0.3000000  -0.2886751  -0.2420051), wk =   0.0040000
        k(  185) = (   0.3000000  -0.2886751  -0.1210026), wk =   0.0040000
        k(  186) = (   0.3000000  -0.1732051   0.0000000), wk =   0.0040000
        k(  187) = (   0.3000000  -0.1732051   0.1210026), wk =   0.0040000
        k(  188) = (   0.3000000  -0.1732051   0.2420051), wk =   0.0040000
        k(  189) = (   0.3000000  -0.1732051  -0.2420051), wk =   0.0040000
        k(  190) = (   0.3000000  -0.1732051  -0.1210026), wk =   0.0040000
        k(  191) = (   0.3000000  -0.0577350   0.0000000), wk =   0.0040000
        k(  192) = (   0.3000000  -0.0577350   0.1210026), wk =   0.0040000
        k(  193) = (   0.3000000  -0.0577350   0.2420051), wk =   0.0040000
        k(  194) = (   0.3000000  -0.0577350  -0.2420051), wk =   0.0040000
        k(  195) = (   0.3000000  -0.0577350  -0.1210026), wk =   0.0040000
        k(  196) = (   0.3000000   0.0577350   0.0000000), wk =   0.0040000
        k(  197) = (   0.3000000   0.0577350   0.1210026), wk =   0.0040000
        k(  198) = (   0.3000000   0.0577350   0.2420051), wk =   0.0040000
        k(  199) = (   0.3000000   0.0577350  -0.2420051), wk =   0.0040000
        k(  200) = (   0.3000000   0.0577350  -0.1210026), wk =   0.0040000
        k(  201) = (   0.4000000   0.2309401   0.0000000), wk =   0.0040000
        k(  202) = (   0.4000000   0.2309401   0.1210026), wk =   0.0040000
        k(  203) = (   0.4000000   0.2309401   0.2420051), wk =   0.0040000
        k(  204) = (   0.4000000   0.2309401  -0.2420051), wk =   0.0040000
        k(  205) = (   0.4000000   0.2309401  -0.1210026), wk =   0.0040000
        k(  206) = (   0.4000000   0.3464102   0.0000000), wk =   0.0040000
        k(  207) = (   0.4000000   0.3464102   0.1210026), wk =   0.0040000
        k(  208) = (   0.4000000   0.3464102   0.2420051), wk =   0.0040000
        k(  209) = (   0.4000000   0.3464102  -0.2420051), wk =   0.0040000
        k(  210) = (   0.4000000   0.3464102  -0.1210026), wk =   0.0040000
        k(  211) = (   0.4000000   0.4618802   0.0000000), wk =   0.0040000
        k(  212) = (   0.4000000   0.4618802   0.1210026), wk =   0.0040000
        k(  213) = (   0.4000000   0.4618802   0.2420051), wk =   0.0040000
        k(  214) = (   0.4000000   0.4618802  -0.2420051), wk =   0.0040000
        k(  215) = (   0.4000000   0.4618802  -0.1210026), wk =   0.0040000
        k(  216) = (   0.4000000   0.5773503   0.0000000), wk =   0.0040000
        k(  217) = (   0.4000000   0.5773503   0.1210026), wk =   0.0040000
        k(  218) = (   0.4000000   0.5773503   0.2420051), wk =   0.0040000
        k(  219) = (   0.4000000   0.5773503  -0.2420051), wk =   0.0040000
        k(  220) = (   0.4000000   0.5773503  -0.1210026), wk =   0.0040000
        k(  221) = (   0.4000000   0.6928203   0.0000000), wk =   0.0040000
        k(  222) = (   0.4000000   0.6928203   0.1210026), wk =   0.0040000
        k(  223) = (   0.4000000   0.6928203   0.2420051), wk =   0.0040000
        k(  224) = (   0.4000000   0.6928203  -0.2420051), wk =   0.0040000
        k(  225) = (   0.4000000   0.6928203  -0.1210026), wk =   0.0040000
        k(  226) = (   0.4000000  -0.3464102   0.0000000), wk =   0.0040000
        k(  227) = (   0.4000000  -0.3464102   0.1210026), wk =   0.0040000
        k(  228) = (   0.4000000  -0.3464102   0.2420051), wk =   0.0040000
        k(  229) = (   0.4000000  -0.3464102  -0.2420051), wk =   0.0040000
        k(  230) = (   0.4000000  -0.3464102  -0.1210026), wk =   0.0040000
        k(  231) = (   0.4000000  -0.2309401   0.0000000), wk =   0.0040000
        k(  232) = (   0.4000000  -0.2309401   0.1210026), wk =   0.0040000
        k(  233) = (   0.4000000  -0.2309401   0.2420051), wk =   0.0040000
        k(  234) = (   0.4000000  -0.2309401  -0.2420051), wk =   0.0040000
        k(  235) = (   0.4000000  -0.2309401  -0.1210026), wk =   0.0040000
        k(  236) = (   0.4000000  -0.1154701   0.0000000), wk =   0.0040000
        k(  237) = (   0.4000000  -0.1154701   0.1210026), wk =   0.0040000
        k(  238) = (   0.4000000  -0.1154701   0.2420051), wk =   0.0040000
        k(  239) = (   0.4000000  -0.1154701  -0.2420051), wk =   0.0040000
        k(  240) = (   0.4000000  -0.1154701  -0.1210026), wk =   0.0040000
        k(  241) = (   0.4000000   0.0000000   0.0000000), wk =   0.0040000
        k(  242) = (   0.4000000   0.0000000   0.1210026), wk =   0.0040000
        k(  243) = (   0.4000000   0.0000000   0.2420051), wk =   0.0040000
        k(  244) = (   0.4000000   0.0000000  -0.2420051), wk =   0.0040000
        k(  245) = (   0.4000000   0.0000000  -0.1210026), wk =   0.0040000
        k(  246) = (   0.4000000   0.1154701   0.0000000), wk =   0.0040000
        k(  247) = (   0.4000000   0.1154701   0.1210026), wk =   0.0040000
        k(  248) = (   0.4000000   0.1154701   0.2420051), wk =   0.0040000
        k(  249) = (   0.4000000   0.1154701  -0.2420051), wk =   0.0040000
        k(  250) = (   0.4000000   0.1154701  -0.1210026), wk =   0.0040000
        k(  251) = (  -0.5000000  -0.2886751   0.0000000), wk =   0.0040000
        k(  252) = (  -0.5000000  -0.2886751   0.1210026), wk =   0.0040000
        k(  253) = (  -0.5000000  -0.2886751   0.2420051), wk =   0.0040000
        k(  254) = (  -0.5000000  -0.2886751  -0.2420051), wk =   0.0040000
        k(  255) = (  -0.5000000  -0.2886751  -0.1210026), wk =   0.0040000
        k(  256) = (  -0.5000000  -0.1732051   0.0000000), wk =   0.0040000
        k(  257) = (  -0.5000000  -0.1732051   0.1210026), wk =   0.0040000
        k(  258) = (  -0.5000000  -0.1732051   0.2420051), wk =   0.0040000
        k(  259) = (  -0.5000000  -0.1732051  -0.2420051), wk =   0.0040000
        k(  260) = (  -0.5000000  -0.1732051  -0.1210026), wk =   0.0040000
        k(  261) = (  -0.5000000  -0.0577350   0.0000000), wk =   0.0040000
        k(  262) = (  -0.5000000  -0.0577350   0.1210026), wk =   0.0040000
        k(  263) = (  -0.5000000  -0.0577350   0.2420051), wk =   0.0040000
        k(  264) = (  -0.5000000  -0.0577350  -0.2420051), wk =   0.0040000
        k(  265) = (  -0.5000000  -0.0577350  -0.1210026), wk =   0.0040000
        k(  266) = (  -0.5000000   0.0577350   0.0000000), wk =   0.0040000
        k(  267) = (  -0.5000000   0.0577350   0.1210026), wk =   0.0040000
        k(  268) = (  -0.5000000   0.0577350   0.2420051), wk =   0.0040000
        k(  269) = (  -0.5000000   0.0577350  -0.2420051), wk =   0.0040000
        k(  270) = (  -0.5000000   0.0577350  -0.1210026), wk =   0.0040000
        k(  271) = (  -0.5000000   0.1732051   0.0000000), wk =   0.0040000
        k(  272) = (  -0.5000000   0.1732051   0.1210026), wk =   0.0040000
        k(  273) = (  -0.5000000   0.1732051   0.2420051), wk =   0.0040000
        k(  274) = (  -0.5000000   0.1732051  -0.2420051), wk =   0.0040000
        k(  275) = (  -0.5000000   0.1732051  -0.1210026), wk =   0.0040000
        k(  276) = (  -0.5000000  -0.8660254   0.0000000), wk =   0.0040000
        k(  277) = (  -0.5000000  -0.8660254   0.1210026), wk =   0.0040000
        k(  278) = (  -0.5000000  -0.8660254   0.2420051), wk =   0.0040000
        k(  279) = (  -0.5000000  -0.8660254  -0.2420051), wk =   0.0040000
        k(  280) = (  -0.5000000  -0.8660254  -0.1210026), wk =   0.0040000
        k(  281) = (  -0.5000000  -0.7505553   0.0000000), wk =   0.0040000
        k(  282) = (  -0.5000000  -0.7505553   0.1210026), wk =   0.0040000
        k(  283) = (  -0.5000000  -0.7505553   0.2420051), wk =   0.0040000
        k(  284) = (  -0.5000000  -0.7505553  -0.2420051), wk =   0.0040000
        k(  285) = (  -0.5000000  -0.7505553  -0.1210026), wk =   0.0040000
        k(  286) = (  -0.5000000  -0.6350853   0.0000000), wk =   0.0040000
        k(  287) = (  -0.5000000  -0.6350853   0.1210026), wk =   0.0040000
        k(  288) = (  -0.5000000  -0.6350853   0.2420051), wk =   0.0040000
        k(  289) = (  -0.5000000  -0.6350853  -0.2420051), wk =   0.0040000
        k(  290) = (  -0.5000000  -0.6350853  -0.1210026), wk =   0.0040000
        k(  291) = (  -0.5000000  -0.5196152   0.0000000), wk =   0.0040000
        k(  292) = (  -0.5000000  -0.5196152   0.1210026), wk =   0.0040000
        k(  293) = (  -0.5000000  -0.5196152   0.2420051), wk =   0.0040000
        k(  294) = (  -0.5000000  -0.5196152  -0.2420051), wk =   0.0040000
        k(  295) = (  -0.5000000  -0.5196152  -0.1210026), wk =   0.0040000
        k(  296) = (  -0.5000000  -0.4041452   0.0000000), wk =   0.0040000
        k(  297) = (  -0.5000000  -0.4041452   0.1210026), wk =   0.0040000
        k(  298) = (  -0.5000000  -0.4041452   0.2420051), wk =   0.0040000
        k(  299) = (  -0.5000000  -0.4041452  -0.2420051), wk =   0.0040000
        k(  300) = (  -0.5000000  -0.4041452  -0.1210026), wk =   0.0040000
        k(  301) = (  -0.4000000  -0.2309401   0.0000000), wk =   0.0040000
        k(  302) = (  -0.4000000  -0.2309401   0.1210026), wk =   0.0040000
        k(  303) = (  -0.4000000  -0.2309401   0.2420051), wk =   0.0040000
        k(  304) = (  -0.4000000  -0.2309401  -0.2420051), wk =   0.0040000
        k(  305) = (  -0.4000000  -0.2309401  -0.1210026), wk =   0.0040000
        k(  306) = (  -0.4000000  -0.1154701   0.0000000), wk =   0.0040000
        k(  307) = (  -0.4000000  -0.1154701   0.1210026), wk =   0.0040000
        k(  308) = (  -0.4000000  -0.1154701   0.2420051), wk =   0.0040000
        k(  309) = (  -0.4000000  -0.1154701  -0.2420051), wk =   0.0040000
        k(  310) = (  -0.4000000  -0.1154701  -0.1210026), wk =   0.0040000
        k(  311) = (  -0.4000000   0.0000000   0.0000000), wk =   0.0040000
        k(  312) = (  -0.4000000   0.0000000   0.1210026), wk =   0.0040000
        k(  313) = (  -0.4000000   0.0000000   0.2420051), wk =   0.0040000
        k(  314) = (  -0.4000000   0.0000000  -0.2420051), wk =   0.0040000
        k(  315) = (  -0.4000000   0.0000000  -0.1210026), wk =   0.0040000
        k(  316) = (  -0.4000000   0.1154701   0.0000000), wk =   0.0040000
        k(  317) = (  -0.4000000   0.1154701   0.1210026), wk =   0.0040000
        k(  318) = (  -0.4000000   0.1154701   0.2420051), wk =   0.0040000
        k(  319) = (  -0.4000000   0.1154701  -0.2420051), wk =   0.0040000
        k(  320) = (  -0.4000000   0.1154701  -0.1210026), wk =   0.0040000
        k(  321) = (  -0.4000000   0.2309401   0.0000000), wk =   0.0040000
        k(  322) = (  -0.4000000   0.2309401   0.1210026), wk =   0.0040000
        k(  323) = (  -0.4000000   0.2309401   0.2420051), wk =   0.0040000
        k(  324) = (  -0.4000000   0.2309401  -0.2420051), wk =   0.0040000
        k(  325) = (  -0.4000000   0.2309401  -0.1210026), wk =   0.0040000
        k(  326) = (  -0.4000000  -0.8082904   0.0000000), wk =   0.0040000
        k(  327) = (  -0.4000000  -0.8082904   0.1210026), wk =   0.0040000
        k(  328) = (  -0.4000000  -0.8082904   0.2420051), wk =   0.0040000
        k(  329) = (  -0.4000000  -0.8082904  -0.2420051), wk =   0.0040000
        k(  330) = (  -0.4000000  -0.8082904  -0.1210026), wk =   0.0040000
        k(  331) = (  -0.4000000  -0.6928203   0.0000000), wk =   0.0040000
        k(  332) = (  -0.4000000  -0.6928203   0.1210026), wk =   0.0040000
        k(  333) = (  -0.4000000  -0.6928203   0.2420051), wk =   0.0040000
        k(  334) = (  -0.4000000  -0.6928203  -0.2420051), wk =   0.0040000
        k(  335) = (  -0.4000000  -0.6928203  -0.1210026), wk =   0.0040000
        k(  336) = (  -0.4000000  -0.5773503   0.0000000), wk =   0.0040000
        k(  337) = (  -0.4000000  -0.5773503   0.1210026), wk =   0.0040000
        k(  338) = (  -0.4000000  -0.5773503   0.2420051), wk =   0.0040000
        k(  339) = (  -0.4000000  -0.5773503  -0.2420051), wk =   0.0040000
        k(  340) = (  -0.4000000  -0.5773503  -0.1210026), wk =   0.0040000
        k(  341) = (  -0.4000000  -0.4618802   0.0000000), wk =   0.0040000
        k(  342) = (  -0.4000000  -0.4618802   0.1210026), wk =   0.0040000
        k(  343) = (  -0.4000000  -0.4618802   0.2420051), wk =   0.0040000
        k(  344) = (  -0.4000000  -0.4618802  -0.2420051), wk =   0.0040000
        k(  345) = (  -0.4000000  -0.4618802  -0.1210026), wk =   0.0040000
        k(  346) = (  -0.4000000  -0.3464102   0.0000000), wk =   0.0040000
        k(  347) = (  -0.4000000  -0.3464102   0.1210026), wk =   0.0040000
        k(  348) = (  -0.4000000  -0.3464102   0.2420051), wk =   0.0040000
        k(  349) = (  -0.4000000  -0.3464102  -0.2420051), wk =   0.0040000
        k(  350) = (  -0.4000000  -0.3464102  -0.1210026), wk =   0.0040000
        k(  351) = (  -0.3000000  -0.1732051   0.0000000), wk =   0.0040000
        k(  352) = (  -0.3000000  -0.1732051   0.1210026), wk =   0.0040000
        k(  353) = (  -0.3000000  -0.1732051   0.2420051), wk =   0.0040000
        k(  354) = (  -0.3000000  -0.1732051  -0.2420051), wk =   0.0040000
        k(  355) = (  -0.3000000  -0.1732051  -0.1210026), wk =   0.0040000
        k(  356) = (  -0.3000000  -0.0577350   0.0000000), wk =   0.0040000
        k(  357) = (  -0.3000000  -0.0577350   0.1210026), wk =   0.0040000
        k(  358) = (  -0.3000000  -0.0577350   0.2420051), wk =   0.0040000
        k(  359) = (  -0.3000000  -0.0577350  -0.2420051), wk =   0.0040000
        k(  360) = (  -0.3000000  -0.0577350  -0.1210026), wk =   0.0040000
        k(  361) = (  -0.3000000   0.0577350   0.0000000), wk =   0.0040000
        k(  362) = (  -0.3000000   0.0577350   0.1210026), wk =   0.0040000
        k(  363) = (  -0.3000000   0.0577350   0.2420051), wk =   0.0040000
        k(  364) = (  -0.3000000   0.0577350  -0.2420051), wk =   0.0040000
        k(  365) = (  -0.3000000   0.0577350  -0.1210026), wk =   0.0040000
        k(  366) = (  -0.3000000   0.1732051   0.0000000), wk =   0.0040000
        k(  367) = (  -0.3000000   0.1732051   0.1210026), wk =   0.0040000
        k(  368) = (  -0.3000000   0.1732051   0.2420051), wk =   0.0040000
        k(  369) = (  -0.3000000   0.1732051  -0.2420051), wk =   0.0040000
        k(  370) = (  -0.3000000   0.1732051  -0.1210026), wk =   0.0040000
        k(  371) = (  -0.3000000   0.2886751   0.0000000), wk =   0.0040000
        k(  372) = (  -0.3000000   0.2886751   0.1210026), wk =   0.0040000
        k(  373) = (  -0.3000000   0.2886751   0.2420051), wk =   0.0040000
        k(  374) = (  -0.3000000   0.2886751  -0.2420051), wk =   0.0040000
        k(  375) = (  -0.3000000   0.2886751  -0.1210026), wk =   0.0040000
        k(  376) = (  -0.3000000  -0.7505553   0.0000000), wk =   0.0040000
        k(  377) = (  -0.3000000  -0.7505553   0.1210026), wk =   0.0040000
        k(  378) = (  -0.3000000  -0.7505553   0.2420051), wk =   0.0040000
        k(  379) = (  -0.3000000  -0.7505553  -0.2420051), wk =   0.0040000
        k(  380) = (  -0.3000000  -0.7505553  -0.1210026), wk =   0.0040000
        k(  381) = (  -0.3000000  -0.6350853   0.0000000), wk =   0.0040000
        k(  382) = (  -0.3000000  -0.6350853   0.1210026), wk =   0.0040000
        k(  383) = (  -0.3000000  -0.6350853   0.2420051), wk =   0.0040000
        k(  384) = (  -0.3000000  -0.6350853  -0.2420051), wk =   0.0040000
        k(  385) = (  -0.3000000  -0.6350853  -0.1210026), wk =   0.0040000
        k(  386) = (  -0.3000000  -0.5196152   0.0000000), wk =   0.0040000
        k(  387) = (  -0.3000000  -0.5196152   0.1210026), wk =   0.0040000
        k(  388) = (  -0.3000000  -0.5196152   0.2420051), wk =   0.0040000
        k(  389) = (  -0.3000000  -0.5196152  -0.2420051), wk =   0.0040000
        k(  390) = (  -0.3000000  -0.5196152  -0.1210026), wk =   0.0040000
        k(  391) = (  -0.3000000  -0.4041452   0.0000000), wk =   0.0040000
        k(  392) = (  -0.3000000  -0.4041452   0.1210026), wk =   0.0040000
        k(  393) = (  -0.3000000  -0.4041452   0.2420051), wk =   0.0040000
        k(  394) = (  -0.3000000  -0.4041452  -0.2420051), wk =   0.0040000
        k(  395) = (  -0.3000000  -0.4041452  -0.1210026), wk =   0.0040000
        k(  396) = (  -0.3000000  -0.2886751   0.0000000), wk =   0.0040000
        k(  397) = (  -0.3000000  -0.2886751   0.1210026), wk =   0.0040000
        k(  398) = (  -0.3000000  -0.2886751   0.2420051), wk =   0.0040000
        k(  399) = (  -0.3000000  -0.2886751  -0.2420051), wk =   0.0040000
        k(  400) = (  -0.3000000  -0.2886751  -0.1210026), wk =   0.0040000
        k(  401) = (  -0.2000000  -0.1154701   0.0000000), wk =   0.0040000
        k(  402) = (  -0.2000000  -0.1154701   0.1210026), wk =   0.0040000
        k(  403) = (  -0.2000000  -0.1154701   0.2420051), wk =   0.0040000
        k(  404) = (  -0.2000000  -0.1154701  -0.2420051), wk =   0.0040000
        k(  405) = (  -0.2000000  -0.1154701  -0.1210026), wk =   0.0040000
        k(  406) = (  -0.2000000   0.0000000   0.0000000), wk =   0.0040000
        k(  407) = (  -0.2000000   0.0000000   0.1210026), wk =   0.0040000
        k(  408) = (  -0.2000000   0.0000000   0.2420051), wk =   0.0040000
        k(  409) = (  -0.2000000   0.0000000  -0.2420051), wk =   0.0040000
        k(  410) = (  -0.2000000   0.0000000  -0.1210026), wk =   0.0040000
        k(  411) = (  -0.2000000   0.1154701   0.0000000), wk =   0.0040000
        k(  412) = (  -0.2000000   0.1154701   0.1210026), wk =   0.0040000
        k(  413) = (  -0.2000000   0.1154701   0.2420051), wk =   0.0040000
        k(  414) = (  -0.2000000   0.1154701  -0.2420051), wk =   0.0040000
        k(  415) = (  -0.2000000   0.1154701  -0.1210026), wk =   0.0040000
        k(  416) = (  -0.2000000   0.2309401   0.0000000), wk =   0.0040000
        k(  417) = (  -0.2000000   0.2309401   0.1210026), wk =   0.0040000
        k(  418) = (  -0.2000000   0.2309401   0.2420051), wk =   0.0040000
        k(  419) = (  -0.2000000   0.2309401  -0.2420051), wk =   0.0040000
        k(  420) = (  -0.2000000   0.2309401  -0.1210026), wk =   0.0040000
        k(  421) = (  -0.2000000   0.3464102   0.0000000), wk =   0.0040000
        k(  422) = (  -0.2000000   0.3464102   0.1210026), wk =   0.0040000
        k(  423) = (  -0.2000000   0.3464102   0.2420051), wk =   0.0040000
        k(  424) = (  -0.2000000   0.3464102  -0.2420051), wk =   0.0040000
        k(  425) = (  -0.2000000   0.3464102  -0.1210026), wk =   0.0040000
        k(  426) = (  -0.2000000  -0.6928203   0.0000000), wk =   0.0040000
        k(  427) = (  -0.2000000  -0.6928203   0.1210026), wk =   0.0040000
        k(  428) = (  -0.2000000  -0.6928203   0.2420051), wk =   0.0040000
        k(  429) = (  -0.2000000  -0.6928203  -0.2420051), wk =   0.0040000
        k(  430) = (  -0.2000000  -0.6928203  -0.1210026), wk =   0.0040000
        k(  431) = (  -0.2000000  -0.5773503   0.0000000), wk =   0.0040000
        k(  432) = (  -0.2000000  -0.5773503   0.1210026), wk =   0.0040000
        k(  433) = (  -0.2000000  -0.5773503   0.2420051), wk =   0.0040000
        k(  434) = (  -0.2000000  -0.5773503  -0.2420051), wk =   0.0040000
        k(  435) = (  -0.2000000  -0.5773503  -0.1210026), wk =   0.0040000
        k(  436) = (  -0.2000000  -0.4618802   0.0000000), wk =   0.0040000
        k(  437) = (  -0.2000000  -0.4618802   0.1210026), wk =   0.0040000
        k(  438) = (  -0.2000000  -0.4618802   0.2420051), wk =   0.0040000
        k(  439) = (  -0.2000000  -0.4618802  -0.2420051), wk =   0.0040000
        k(  440) = (  -0.2000000  -0.4618802  -0.1210026), wk =   0.0040000
        k(  441) = (  -0.2000000  -0.3464102   0.0000000), wk =   0.0040000
        k(  442) = (  -0.2000000  -0.3464102   0.1210026), wk =   0.0040000
        k(  443) = (  -0.2000000  -0.3464102   0.2420051), wk =   0.0040000
        k(  444) = (  -0.2000000  -0.3464102  -0.2420051), wk =   0.0040000
        k(  445) = (  -0.2000000  -0.3464102  -0.1210026), wk =   0.0040000
        k(  446) = (  -0.2000000  -0.2309401   0.0000000), wk =   0.0040000
        k(  447) = (  -0.2000000  -0.2309401   0.1210026), wk =   0.0040000
        k(  448) = (  -0.2000000  -0.2309401   0.2420051), wk =   0.0040000
        k(  449) = (  -0.2000000  -0.2309401  -0.2420051), wk =   0.0040000
        k(  450) = (  -0.2000000  -0.2309401  -0.1210026), wk =   0.0040000
        k(  451) = (  -0.1000000  -0.0577350   0.0000000), wk =   0.0040000
        k(  452) = (  -0.1000000  -0.0577350   0.1210026), wk =   0.0040000
        k(  453) = (  -0.1000000  -0.0577350   0.2420051), wk =   0.0040000
        k(  454) = (  -0.1000000  -0.0577350  -0.2420051), wk =   0.0040000
        k(  455) = (  -0.1000000  -0.0577350  -0.1210026), wk =   0.0040000
        k(  456) = (  -0.1000000   0.0577350   0.0000000), wk =   0.0040000
        k(  457) = (  -0.1000000   0.0577350   0.1210026), wk =   0.0040000
        k(  458) = (  -0.1000000   0.0577350   0.2420051), wk =   0.0040000
        k(  459) = (  -0.1000000   0.0577350  -0.2420051), wk =   0.0040000
        k(  460) = (  -0.1000000   0.0577350  -0.1210026), wk =   0.0040000
        k(  461) = (  -0.1000000   0.1732051   0.0000000), wk =   0.0040000
        k(  462) = (  -0.1000000   0.1732051   0.1210026), wk =   0.0040000
        k(  463) = (  -0.1000000   0.1732051   0.2420051), wk =   0.0040000
        k(  464) = (  -0.1000000   0.1732051  -0.2420051), wk =   0.0040000
        k(  465) = (  -0.1000000   0.1732051  -0.1210026), wk =   0.0040000
        k(  466) = (  -0.1000000   0.2886751   0.0000000), wk =   0.0040000
        k(  467) = (  -0.1000000   0.2886751   0.1210026), wk =   0.0040000
        k(  468) = (  -0.1000000   0.2886751   0.2420051), wk =   0.0040000
        k(  469) = (  -0.1000000   0.2886751  -0.2420051), wk =   0.0040000
        k(  470) = (  -0.1000000   0.2886751  -0.1210026), wk =   0.0040000
        k(  471) = (  -0.1000000   0.4041452   0.0000000), wk =   0.0040000
        k(  472) = (  -0.1000000   0.4041452   0.1210026), wk =   0.0040000
        k(  473) = (  -0.1000000   0.4041452   0.2420051), wk =   0.0040000
        k(  474) = (  -0.1000000   0.4041452  -0.2420051), wk =   0.0040000
        k(  475) = (  -0.1000000   0.4041452  -0.1210026), wk =   0.0040000
        k(  476) = (  -0.1000000  -0.6350853   0.0000000), wk =   0.0040000
        k(  477) = (  -0.1000000  -0.6350853   0.1210026), wk =   0.0040000
        k(  478) = (  -0.1000000  -0.6350853   0.2420051), wk =   0.0040000
        k(  479) = (  -0.1000000  -0.6350853  -0.2420051), wk =   0.0040000
        k(  480) = (  -0.1000000  -0.6350853  -0.1210026), wk =   0.0040000
        k(  481) = (  -0.1000000  -0.5196152   0.0000000), wk =   0.0040000
        k(  482) = (  -0.1000000  -0.5196152   0.1210026), wk =   0.0040000
        k(  483) = (  -0.1000000  -0.5196152   0.2420051), wk =   0.0040000
        k(  484) = (  -0.1000000  -0.5196152  -0.2420051), wk =   0.0040000
        k(  485) = (  -0.1000000  -0.5196152  -0.1210026), wk =   0.0040000
        k(  486) = (  -0.1000000  -0.4041452   0.0000000), wk =   0.0040000
        k(  487) = (  -0.1000000  -0.4041452   0.1210026), wk =   0.0040000
        k(  488) = (  -0.1000000  -0.4041452   0.2420051), wk =   0.0040000
        k(  489) = (  -0.1000000  -0.4041452  -0.2420051), wk =   0.0040000
        k(  490) = (  -0.1000000  -0.4041452  -0.1210026), wk =   0.0040000
        k(  491) = (  -0.1000000  -0.2886751   0.0000000), wk =   0.0040000
        k(  492) = (  -0.1000000  -0.2886751   0.1210026), wk =   0.0040000
        k(  493) = (  -0.1000000  -0.2886751   0.2420051), wk =   0.0040000
        k(  494) = (  -0.1000000  -0.2886751  -0.2420051), wk =   0.0040000
        k(  495) = (  -0.1000000  -0.2886751  -0.1210026), wk =   0.0040000
        k(  496) = (  -0.1000000  -0.1732051   0.0000000), wk =   0.0040000
        k(  497) = (  -0.1000000  -0.1732051   0.1210026), wk =   0.0040000
        k(  498) = (  -0.1000000  -0.1732051   0.2420051), wk =   0.0040000
        k(  499) = (  -0.1000000  -0.1732051  -0.2420051), wk =   0.0040000
        k(  500) = (  -0.1000000  -0.1732051  -0.1210026), wk =   0.0040000

                       cryst. coord.
        k(    1) = (   0.0000000   0.0000000   0.0000000), wk =   0.0040000
        k(    2) = (   0.0000000   0.0000000   0.2000000), wk =   0.0040000
        k(    3) = (   0.0000000   0.0000000   0.4000000), wk =   0.0040000
        k(    4) = (   0.0000000   0.0000000  -0.4000000), wk =   0.0040000
        k(    5) = (   0.0000000   0.0000000  -0.2000000), wk =   0.0040000
        k(    6) = (   0.0000000   0.1000000   0.0000000), wk =   0.0040000
        k(    7) = (   0.0000000   0.1000000   0.2000000), wk =   0.0040000
        k(    8) = (   0.0000000   0.1000000   0.4000000), wk =   0.0040000
        k(    9) = (   0.0000000   0.1000000  -0.4000000), wk =   0.0040000
        k(   10) = (   0.0000000   0.1000000  -0.2000000), wk =   0.0040000
        k(   11) = (   0.0000000   0.2000000   0.0000000), wk =   0.0040000
        k(   12) = (   0.0000000   0.2000000   0.2000000), wk =   0.0040000
        k(   13) = (   0.0000000   0.2000000   0.4000000), wk =   0.0040000
        k(   14) = (   0.0000000   0.2000000  -0.4000000), wk =   0.0040000
        k(   15) = (   0.0000000   0.2000000  -0.2000000), wk =   0.0040000
        k(   16) = (   0.0000000   0.3000000   0.0000000), wk =   0.0040000
        k(   17) = (   0.0000000   0.3000000   0.2000000), wk =   0.0040000
        k(   18) = (   0.0000000   0.3000000   0.4000000), wk =   0.0040000
        k(   19) = (   0.0000000   0.3000000  -0.4000000), wk =   0.0040000
        k(   20) = (   0.0000000   0.3000000  -0.2000000), wk =   0.0040000
        k(   21) = (   0.0000000   0.4000000   0.0000000), wk =   0.0040000
        k(   22) = (   0.0000000   0.4000000   0.2000000), wk =   0.0040000
        k(   23) = (   0.0000000   0.4000000   0.4000000), wk =   0.0040000
        k(   24) = (   0.0000000   0.4000000  -0.4000000), wk =   0.0040000
        k(   25) = (   0.0000000   0.4000000  -0.2000000), wk =   0.0040000
        k(   26) = (   0.0000000  -0.5000000   0.0000000), wk =   0.0040000
        k(   27) = (   0.0000000  -0.5000000   0.2000000), wk =   0.0040000
        k(   28) = (   0.0000000  -0.5000000   0.4000000), wk =   0.0040000
        k(   29) = (   0.0000000  -0.5000000  -0.4000000), wk =   0.0040000
        k(   30) = (   0.0000000  -0.5000000  -0.2000000), wk =   0.0040000
        k(   31) = (   0.0000000  -0.4000000   0.0000000), wk =   0.0040000
        k(   32) = (   0.0000000  -0.4000000   0.2000000), wk =   0.0040000
        k(   33) = (   0.0000000  -0.4000000   0.4000000), wk =   0.0040000
        k(   34) = (   0.0000000  -0.4000000  -0.4000000), wk =   0.0040000
        k(   35) = (   0.0000000  -0.4000000  -0.2000000), wk =   0.0040000
        k(   36) = (   0.0000000  -0.3000000   0.0000000), wk =   0.0040000
        k(   37) = (   0.0000000  -0.3000000   0.2000000), wk =   0.0040000
        k(   38) = (   0.0000000  -0.3000000   0.4000000), wk =   0.0040000
        k(   39) = (   0.0000000  -0.3000000  -0.4000000), wk =   0.0040000
        k(   40) = (   0.0000000  -0.3000000  -0.2000000), wk =   0.0040000
        k(   41) = (   0.0000000  -0.2000000   0.0000000), wk =   0.0040000
        k(   42) = (   0.0000000  -0.2000000   0.2000000), wk =   0.0040000
        k(   43) = (   0.0000000  -0.2000000   0.4000000), wk =   0.0040000
        k(   44) = (   0.0000000  -0.2000000  -0.4000000), wk =   0.0040000
        k(   45) = (   0.0000000  -0.2000000  -0.2000000), wk =   0.0040000
        k(   46) = (   0.0000000  -0.1000000   0.0000000), wk =   0.0040000
        k(   47) = (   0.0000000  -0.1000000   0.2000000), wk =   0.0040000
        k(   48) = (   0.0000000  -0.1000000   0.4000000), wk =   0.0040000
        k(   49) = (   0.0000000  -0.1000000  -0.4000000), wk =   0.0040000
        k(   50) = (   0.0000000  -0.1000000  -0.2000000), wk =   0.0040000
        k(   51) = (   0.1000000   0.0000000   0.0000000), wk =   0.0040000
        k(   52) = (   0.1000000   0.0000000   0.2000000), wk =   0.0040000
        k(   53) = (   0.1000000   0.0000000   0.4000000), wk =   0.0040000
        k(   54) = (   0.1000000   0.0000000  -0.4000000), wk =   0.0040000
        k(   55) = (   0.1000000   0.0000000  -0.2000000), wk =   0.0040000
        k(   56) = (   0.1000000   0.1000000   0.0000000), wk =   0.0040000
        k(   57) = (   0.1000000   0.1000000   0.2000000), wk =   0.0040000
        k(   58) = (   0.1000000   0.1000000   0.4000000), wk =   0.0040000
        k(   59) = (   0.1000000   0.1000000  -0.4000000), wk =   0.0040000
        k(   60) = (   0.1000000   0.1000000  -0.2000000), wk =   0.0040000
        k(   61) = (   0.1000000   0.2000000   0.0000000), wk =   0.0040000
        k(   62) = (   0.1000000   0.2000000   0.2000000), wk =   0.0040000
        k(   63) = (   0.1000000   0.2000000   0.4000000), wk =   0.0040000
        k(   64) = (   0.1000000   0.2000000  -0.4000000), wk =   0.0040000
        k(   65) = (   0.1000000   0.2000000  -0.2000000), wk =   0.0040000
        k(   66) = (   0.1000000   0.3000000   0.0000000), wk =   0.0040000
        k(   67) = (   0.1000000   0.3000000   0.2000000), wk =   0.0040000
        k(   68) = (   0.1000000   0.3000000   0.4000000), wk =   0.0040000
        k(   69) = (   0.1000000   0.3000000  -0.4000000), wk =   0.0040000
        k(   70) = (   0.1000000   0.3000000  -0.2000000), wk =   0.0040000
        k(   71) = (   0.1000000   0.4000000   0.0000000), wk =   0.0040000
        k(   72) = (   0.1000000   0.4000000   0.2000000), wk =   0.0040000
        k(   73) = (   0.1000000   0.4000000   0.4000000), wk =   0.0040000
        k(   74) = (   0.1000000   0.4000000  -0.4000000), wk =   0.0040000
        k(   75) = (   0.1000000   0.4000000  -0.2000000), wk =   0.0040000
        k(   76) = (   0.1000000  -0.5000000   0.0000000), wk =   0.0040000
        k(   77) = (   0.1000000  -0.5000000   0.2000000), wk =   0.0040000
        k(   78) = (   0.1000000  -0.5000000   0.4000000), wk =   0.0040000
        k(   79) = (   0.1000000  -0.5000000  -0.4000000), wk =   0.0040000
        k(   80) = (   0.1000000  -0.5000000  -0.2000000), wk =   0.0040000
        k(   81) = (   0.1000000  -0.4000000   0.0000000), wk =   0.0040000
        k(   82) = (   0.1000000  -0.4000000   0.2000000), wk =   0.0040000
        k(   83) = (   0.1000000  -0.4000000   0.4000000), wk =   0.0040000
        k(   84) = (   0.1000000  -0.4000000  -0.4000000), wk =   0.0040000
        k(   85) = (   0.1000000  -0.4000000  -0.2000000), wk =   0.0040000
        k(   86) = (   0.1000000  -0.3000000   0.0000000), wk =   0.0040000
        k(   87) = (   0.1000000  -0.3000000   0.2000000), wk =   0.0040000
        k(   88) = (   0.1000000  -0.3000000   0.4000000), wk =   0.0040000
        k(   89) = (   0.1000000  -0.3000000  -0.4000000), wk =   0.0040000
        k(   90) = (   0.1000000  -0.3000000  -0.2000000), wk =   0.0040000
        k(   91) = (   0.1000000  -0.2000000   0.0000000), wk =   0.0040000
        k(   92) = (   0.1000000  -0.2000000   0.2000000), wk =   0.0040000
        k(   93) = (   0.1000000  -0.2000000   0.4000000), wk =   0.0040000
        k(   94) = (   0.1000000  -0.2000000  -0.4000000), wk =   0.0040000
        k(   95) = (   0.1000000  -0.2000000  -0.2000000), wk =   0.0040000
        k(   96) = (   0.1000000  -0.1000000   0.0000000), wk =   0.0040000
        k(   97) = (   0.1000000  -0.1000000   0.2000000), wk =   0.0040000
        k(   98) = (   0.1000000  -0.1000000   0.4000000), wk =   0.0040000
        k(   99) = (   0.1000000  -0.1000000  -0.4000000), wk =   0.0040000
        k(  100) = (   0.1000000  -0.1000000  -0.2000000), wk =   0.0040000
        k(  101) = (   0.2000000   0.0000000   0.0000000), wk =   0.0040000
        k(  102) = (   0.2000000   0.0000000   0.2000000), wk =   0.0040000
        k(  103) = (   0.2000000   0.0000000   0.4000000), wk =   0.0040000
        k(  104) = (   0.2000000   0.0000000  -0.4000000), wk =   0.0040000
        k(  105) = (   0.2000000   0.0000000  -0.2000000), wk =   0.0040000
        k(  106) = (   0.2000000   0.1000000   0.0000000), wk =   0.0040000
        k(  107) = (   0.2000000   0.1000000   0.2000000), wk =   0.0040000
        k(  108) = (   0.2000000   0.1000000   0.4000000), wk =   0.0040000
        k(  109) = (   0.2000000   0.1000000  -0.4000000), wk =   0.0040000
        k(  110) = (   0.2000000   0.1000000  -0.2000000), wk =   0.0040000
        k(  111) = (   0.2000000   0.2000000   0.0000000), wk =   0.0040000
        k(  112) = (   0.2000000   0.2000000   0.2000000), wk =   0.0040000
        k(  113) = (   0.2000000   0.2000000   0.4000000), wk =   0.0040000
        k(  114) = (   0.2000000   0.2000000  -0.4000000), wk =   0.0040000
        k(  115) = (   0.2000000   0.2000000  -0.2000000), wk =   0.0040000
        k(  116) = (   0.2000000   0.3000000   0.0000000), wk =   0.0040000
        k(  117) = (   0.2000000   0.3000000   0.2000000), wk =   0.0040000
        k(  118) = (   0.2000000   0.3000000   0.4000000), wk =   0.0040000
        k(  119) = (   0.2000000   0.3000000  -0.4000000), wk =   0.0040000
        k(  120) = (   0.2000000   0.3000000  -0.2000000), wk =   0.0040000
        k(  121) = (   0.2000000   0.4000000   0.0000000), wk =   0.0040000
        k(  122) = (   0.2000000   0.4000000   0.2000000), wk =   0.0040000
        k(  123) = (   0.2000000   0.4000000   0.4000000), wk =   0.0040000
        k(  124) = (   0.2000000   0.4000000  -0.4000000), wk =   0.0040000
        k(  125) = (   0.2000000   0.4000000  -0.2000000), wk =   0.0040000
        k(  126) = (   0.2000000  -0.5000000   0.0000000), wk =   0.0040000
        k(  127) = (   0.2000000  -0.5000000   0.2000000), wk =   0.0040000
        k(  128) = (   0.2000000  -0.5000000   0.4000000), wk =   0.0040000
        k(  129) = (   0.2000000  -0.5000000  -0.4000000), wk =   0.0040000
        k(  130) = (   0.2000000  -0.5000000  -0.2000000), wk =   0.0040000
        k(  131) = (   0.2000000  -0.4000000   0.0000000), wk =   0.0040000
        k(  132) = (   0.2000000  -0.4000000   0.2000000), wk =   0.0040000
        k(  133) = (   0.2000000  -0.4000000   0.4000000), wk =   0.0040000
        k(  134) = (   0.2000000  -0.4000000  -0.4000000), wk =   0.0040000
        k(  135) = (   0.2000000  -0.4000000  -0.2000000), wk =   0.0040000
        k(  136) = (   0.2000000  -0.3000000   0.0000000), wk =   0.0040000
        k(  137) = (   0.2000000  -0.3000000   0.2000000), wk =   0.0040000
        k(  138) = (   0.2000000  -0.3000000   0.4000000), wk =   0.0040000
        k(  139) = (   0.2000000  -0.3000000  -0.4000000), wk =   0.0040000
        k(  140) = (   0.2000000  -0.3000000  -0.2000000), wk =   0.0040000
        k(  141) = (   0.2000000  -0.2000000   0.0000000), wk =   0.0040000
        k(  142) = (   0.2000000  -0.2000000   0.2000000), wk =   0.0040000
        k(  143) = (   0.2000000  -0.2000000   0.4000000), wk =   0.0040000
        k(  144) = (   0.2000000  -0.2000000  -0.4000000), wk =   0.0040000
        k(  145) = (   0.2000000  -0.2000000  -0.2000000), wk =   0.0040000
        k(  146) = (   0.2000000  -0.1000000   0.0000000), wk =   0.0040000
        k(  147) = (   0.2000000  -0.1000000   0.2000000), wk =   0.0040000
        k(  148) = (   0.2000000  -0.1000000   0.4000000), wk =   0.0040000
        k(  149) = (   0.2000000  -0.1000000  -0.4000000), wk =   0.0040000
        k(  150) = (   0.2000000  -0.1000000  -0.2000000), wk =   0.0040000
        k(  151) = (   0.3000000   0.0000000   0.0000000), wk =   0.0040000
        k(  152) = (   0.3000000   0.0000000   0.2000000), wk =   0.0040000
        k(  153) = (   0.3000000   0.0000000   0.4000000), wk =   0.0040000
        k(  154) = (   0.3000000   0.0000000  -0.4000000), wk =   0.0040000
        k(  155) = (   0.3000000   0.0000000  -0.2000000), wk =   0.0040000
        k(  156) = (   0.3000000   0.1000000   0.0000000), wk =   0.0040000
        k(  157) = (   0.3000000   0.1000000   0.2000000), wk =   0.0040000
        k(  158) = (   0.3000000   0.1000000   0.4000000), wk =   0.0040000
        k(  159) = (   0.3000000   0.1000000  -0.4000000), wk =   0.0040000
        k(  160) = (   0.3000000   0.1000000  -0.2000000), wk =   0.0040000
        k(  161) = (   0.3000000   0.2000000   0.0000000), wk =   0.0040000
        k(  162) = (   0.3000000   0.2000000   0.2000000), wk =   0.0040000
        k(  163) = (   0.3000000   0.2000000   0.4000000), wk =   0.0040000
        k(  164) = (   0.3000000   0.2000000  -0.4000000), wk =   0.0040000
        k(  165) = (   0.3000000   0.2000000  -0.2000000), wk =   0.0040000
        k(  166) = (   0.3000000   0.3000000   0.0000000), wk =   0.0040000
        k(  167) = (   0.3000000   0.3000000   0.2000000), wk =   0.0040000
        k(  168) = (   0.3000000   0.3000000   0.4000000), wk =   0.0040000
        k(  169) = (   0.3000000   0.3000000  -0.4000000), wk =   0.0040000
        k(  170) = (   0.3000000   0.3000000  -0.2000000), wk =   0.0040000
        k(  171) = (   0.3000000   0.4000000   0.0000000), wk =   0.0040000
        k(  172) = (   0.3000000   0.4000000   0.2000000), wk =   0.0040000
        k(  173) = (   0.3000000   0.4000000   0.4000000), wk =   0.0040000
        k(  174) = (   0.3000000   0.4000000  -0.4000000), wk =   0.0040000
        k(  175) = (   0.3000000   0.4000000  -0.2000000), wk =   0.0040000
        k(  176) = (   0.3000000  -0.5000000   0.0000000), wk =   0.0040000
        k(  177) = (   0.3000000  -0.5000000   0.2000000), wk =   0.0040000
        k(  178) = (   0.3000000  -0.5000000   0.4000000), wk =   0.0040000
        k(  179) = (   0.3000000  -0.5000000  -0.4000000), wk =   0.0040000
        k(  180) = (   0.3000000  -0.5000000  -0.2000000), wk =   0.0040000
        k(  181) = (   0.3000000  -0.4000000   0.0000000), wk =   0.0040000
        k(  182) = (   0.3000000  -0.4000000   0.2000000), wk =   0.0040000
        k(  183) = (   0.3000000  -0.4000000   0.4000000), wk =   0.0040000
        k(  184) = (   0.3000000  -0.4000000  -0.4000000), wk =   0.0040000
        k(  185) = (   0.3000000  -0.4000000  -0.2000000), wk =   0.0040000
        k(  186) = (   0.3000000  -0.3000000   0.0000000), wk =   0.0040000
        k(  187) = (   0.3000000  -0.3000000   0.2000000), wk =   0.0040000
        k(  188) = (   0.3000000  -0.3000000   0.4000000), wk =   0.0040000
        k(  189) = (   0.3000000  -0.3000000  -0.4000000), wk =   0.0040000
        k(  190) = (   0.3000000  -0.3000000  -0.2000000), wk =   0.0040000
        k(  191) = (   0.3000000  -0.2000000   0.0000000), wk =   0.0040000
        k(  192) = (   0.3000000  -0.2000000   0.2000000), wk =   0.0040000
        k(  193) = (   0.3000000  -0.2000000   0.4000000), wk =   0.0040000
        k(  194) = (   0.3000000  -0.2000000  -0.4000000), wk =   0.0040000
        k(  195) = (   0.3000000  -0.2000000  -0.2000000), wk =   0.0040000
        k(  196) = (   0.3000000  -0.1000000   0.0000000), wk =   0.0040000
        k(  197) = (   0.3000000  -0.1000000   0.2000000), wk =   0.0040000
        k(  198) = (   0.3000000  -0.1000000   0.4000000), wk =   0.0040000
        k(  199) = (   0.3000000  -0.1000000  -0.4000000), wk =   0.0040000
        k(  200) = (   0.3000000  -0.1000000  -0.2000000), wk =   0.0040000
        k(  201) = (   0.4000000   0.0000000   0.0000000), wk =   0.0040000
        k(  202) = (   0.4000000   0.0000000   0.2000000), wk =   0.0040000
        k(  203) = (   0.4000000   0.0000000   0.4000000), wk =   0.0040000
        k(  204) = (   0.4000000   0.0000000  -0.4000000), wk =   0.0040000
        k(  205) = (   0.4000000   0.0000000  -0.2000000), wk =   0.0040000
        k(  206) = (   0.4000000   0.1000000   0.0000000), wk =   0.0040000
        k(  207) = (   0.4000000   0.1000000   0.2000000), wk =   0.0040000
        k(  208) = (   0.4000000   0.1000000   0.4000000), wk =   0.0040000
        k(  209) = (   0.4000000   0.1000000  -0.4000000), wk =   0.0040000
        k(  210) = (   0.4000000   0.1000000  -0.2000000), wk =   0.0040000
        k(  211) = (   0.4000000   0.2000000   0.0000000), wk =   0.0040000
        k(  212) = (   0.4000000   0.2000000   0.2000000), wk =   0.0040000
        k(  213) = (   0.4000000   0.2000000   0.4000000), wk =   0.0040000
        k(  214) = (   0.4000000   0.2000000  -0.4000000), wk =   0.0040000
        k(  215) = (   0.4000000   0.2000000  -0.2000000), wk =   0.0040000
        k(  216) = (   0.4000000   0.3000000   0.0000000), wk =   0.0040000
        k(  217) = (   0.4000000   0.3000000   0.2000000), wk =   0.0040000
        k(  218) = (   0.4000000   0.3000000   0.4000000), wk =   0.0040000
        k(  219) = (   0.4000000   0.3000000  -0.4000000), wk =   0.0040000
        k(  220) = (   0.4000000   0.3000000  -0.2000000), wk =   0.0040000
        k(  221) = (   0.4000000   0.4000000   0.0000000), wk =   0.0040000
        k(  222) = (   0.4000000   0.4000000   0.2000000), wk =   0.0040000
        k(  223) = (   0.4000000   0.4000000   0.4000000), wk =   0.0040000
        k(  224) = (   0.4000000   0.4000000  -0.4000000), wk =   0.0040000
        k(  225) = (   0.4000000   0.4000000  -0.2000000), wk =   0.0040000
        k(  226) = (   0.4000000  -0.5000000   0.0000000), wk =   0.0040000
        k(  227) = (   0.4000000  -0.5000000   0.2000000), wk =   0.0040000
        k(  228) = (   0.4000000  -0.5000000   0.4000000), wk =   0.0040000
        k(  229) = (   0.4000000  -0.5000000  -0.4000000), wk =   0.0040000
        k(  230) = (   0.4000000  -0.5000000  -0.2000000), wk =   0.0040000
        k(  231) = (   0.4000000  -0.4000000   0.0000000), wk =   0.0040000
        k(  232) = (   0.4000000  -0.4000000   0.2000000), wk =   0.0040000
        k(  233) = (   0.4000000  -0.4000000   0.4000000), wk =   0.0040000
        k(  234) = (   0.4000000  -0.4000000  -0.4000000), wk =   0.0040000
        k(  235) = (   0.4000000  -0.4000000  -0.2000000), wk =   0.0040000
        k(  236) = (   0.4000000  -0.3000000   0.0000000), wk =   0.0040000
        k(  237) = (   0.4000000  -0.3000000   0.2000000), wk =   0.0040000
        k(  238) = (   0.4000000  -0.3000000   0.4000000), wk =   0.0040000
        k(  239) = (   0.4000000  -0.3000000  -0.4000000), wk =   0.0040000
        k(  240) = (   0.4000000  -0.3000000  -0.2000000), wk =   0.0040000
        k(  241) = (   0.4000000  -0.2000000   0.0000000), wk =   0.0040000
        k(  242) = (   0.4000000  -0.2000000   0.2000000), wk =   0.0040000
        k(  243) = (   0.4000000  -0.2000000   0.4000000), wk =   0.0040000
        k(  244) = (   0.4000000  -0.2000000  -0.4000000), wk =   0.0040000
        k(  245) = (   0.4000000  -0.2000000  -0.2000000), wk =   0.0040000
        k(  246) = (   0.4000000  -0.1000000   0.0000000), wk =   0.0040000
        k(  247) = (   0.4000000  -0.1000000   0.2000000), wk =   0.0040000
        k(  248) = (   0.4000000  -0.1000000   0.4000000), wk =   0.0040000
        k(  249) = (   0.4000000  -0.1000000  -0.4000000), wk =   0.0040000
        k(  250) = (   0.4000000  -0.1000000  -0.2000000), wk =   0.0040000
        k(  251) = (  -0.5000000   0.0000000   0.0000000), wk =   0.0040000
        k(  252) = (  -0.5000000   0.0000000   0.2000000), wk =   0.0040000
        k(  253) = (  -0.5000000   0.0000000   0.4000000), wk =   0.0040000
        k(  254) = (  -0.5000000   0.0000000  -0.4000000), wk =   0.0040000
        k(  255) = (  -0.5000000   0.0000000  -0.2000000), wk =   0.0040000
        k(  256) = (  -0.5000000   0.1000000   0.0000000), wk =   0.0040000
        k(  257) = (  -0.5000000   0.1000000   0.2000000), wk =   0.0040000
        k(  258) = (  -0.5000000   0.1000000   0.4000000), wk =   0.0040000
        k(  259) = (  -0.5000000   0.1000000  -0.4000000), wk =   0.0040000
        k(  260) = (  -0.5000000   0.1000000  -0.2000000), wk =   0.0040000
        k(  261) = (  -0.5000000   0.2000000   0.0000000), wk =   0.0040000
        k(  262) = (  -0.5000000   0.2000000   0.2000000), wk =   0.0040000
        k(  263) = (  -0.5000000   0.2000000   0.4000000), wk =   0.0040000
        k(  264) = (  -0.5000000   0.2000000  -0.4000000), wk =   0.0040000
        k(  265) = (  -0.5000000   0.2000000  -0.2000000), wk =   0.0040000
        k(  266) = (  -0.5000000   0.3000000   0.0000000), wk =   0.0040000
        k(  267) = (  -0.5000000   0.3000000   0.2000000), wk =   0.0040000
        k(  268) = (  -0.5000000   0.3000000   0.4000000), wk =   0.0040000
        k(  269) = (  -0.5000000   0.3000000  -0.4000000), wk =   0.0040000
        k(  270) = (  -0.5000000   0.3000000  -0.2000000), wk =   0.0040000
        k(  271) = (  -0.5000000   0.4000000   0.0000000), wk =   0.0040000
        k(  272) = (  -0.5000000   0.4000000   0.2000000), wk =   0.0040000
        k(  273) = (  -0.5000000   0.4000000   0.4000000), wk =   0.0040000
        k(  274) = (  -0.5000000   0.4000000  -0.4000000), wk =   0.0040000
        k(  275) = (  -0.5000000   0.4000000  -0.2000000), wk =   0.0040000
        k(  276) = (  -0.5000000  -0.5000000   0.0000000), wk =   0.0040000
        k(  277) = (  -0.5000000  -0.5000000   0.2000000), wk =   0.0040000
        k(  278) = (  -0.5000000  -0.5000000   0.4000000), wk =   0.0040000
        k(  279) = (  -0.5000000  -0.5000000  -0.4000000), wk =   0.0040000
        k(  280) = (  -0.5000000  -0.5000000  -0.2000000), wk =   0.0040000
        k(  281) = (  -0.5000000  -0.4000000   0.0000000), wk =   0.0040000
        k(  282) = (  -0.5000000  -0.4000000   0.2000000), wk =   0.0040000
        k(  283) = (  -0.5000000  -0.4000000   0.4000000), wk =   0.0040000
        k(  284) = (  -0.5000000  -0.4000000  -0.4000000), wk =   0.0040000
        k(  285) = (  -0.5000000  -0.4000000  -0.2000000), wk =   0.0040000
        k(  286) = (  -0.5000000  -0.3000000   0.0000000), wk =   0.0040000
        k(  287) = (  -0.5000000  -0.3000000   0.2000000), wk =   0.0040000
        k(  288) = (  -0.5000000  -0.3000000   0.4000000), wk =   0.0040000
        k(  289) = (  -0.5000000  -0.3000000  -0.4000000), wk =   0.0040000
        k(  290) = (  -0.5000000  -0.3000000  -0.2000000), wk =   0.0040000
        k(  291) = (  -0.5000000  -0.2000000   0.0000000), wk =   0.0040000
        k(  292) = (  -0.5000000  -0.2000000   0.2000000), wk =   0.0040000
        k(  293) = (  -0.5000000  -0.2000000   0.4000000), wk =   0.0040000
        k(  294) = (  -0.5000000  -0.2000000  -0.4000000), wk =   0.0040000
        k(  295) = (  -0.5000000  -0.2000000  -0.2000000), wk =   0.0040000
        k(  296) = (  -0.5000000  -0.1000000   0.0000000), wk =   0.0040000
        k(  297) = (  -0.5000000  -0.1000000   0.2000000), wk =   0.0040000
        k(  298) = (  -0.5000000  -0.1000000   0.4000000), wk =   0.0040000
        k(  299) = (  -0.5000000  -0.1000000  -0.4000000), wk =   0.0040000
        k(  300) = (  -0.5000000  -0.1000000  -0.2000000), wk =   0.0040000
        k(  301) = (  -0.4000000   0.0000000   0.0000000), wk =   0.0040000
        k(  302) = (  -0.4000000   0.0000000   0.2000000), wk =   0.0040000
        k(  303) = (  -0.4000000   0.0000000   0.4000000), wk =   0.0040000
        k(  304) = (  -0.4000000   0.0000000  -0.4000000), wk =   0.0040000
        k(  305) = (  -0.4000000   0.0000000  -0.2000000), wk =   0.0040000
        k(  306) = (  -0.4000000   0.1000000   0.0000000), wk =   0.0040000
        k(  307) = (  -0.4000000   0.1000000   0.2000000), wk =   0.0040000
        k(  308) = (  -0.4000000   0.1000000   0.4000000), wk =   0.0040000
        k(  309) = (  -0.4000000   0.1000000  -0.4000000), wk =   0.0040000
        k(  310) = (  -0.4000000   0.1000000  -0.2000000), wk =   0.0040000
        k(  311) = (  -0.4000000   0.2000000   0.0000000), wk =   0.0040000
        k(  312) = (  -0.4000000   0.2000000   0.2000000), wk =   0.0040000
        k(  313) = (  -0.4000000   0.2000000   0.4000000), wk =   0.0040000
        k(  314) = (  -0.4000000   0.2000000  -0.4000000), wk =   0.0040000
        k(  315) = (  -0.4000000   0.2000000  -0.2000000), wk =   0.0040000
        k(  316) = (  -0.4000000   0.3000000   0.0000000), wk =   0.0040000
        k(  317) = (  -0.4000000   0.3000000   0.2000000), wk =   0.0040000
        k(  318) = (  -0.4000000   0.3000000   0.4000000), wk =   0.0040000
        k(  319) = (  -0.4000000   0.3000000  -0.4000000), wk =   0.0040000
        k(  320) = (  -0.4000000   0.3000000  -0.2000000), wk =   0.0040000
        k(  321) = (  -0.4000000   0.4000000   0.0000000), wk =   0.0040000
        k(  322) = (  -0.4000000   0.4000000   0.2000000), wk =   0.0040000
        k(  323) = (  -0.4000000   0.4000000   0.4000000), wk =   0.0040000
        k(  324) = (  -0.4000000   0.4000000  -0.4000000), wk =   0.0040000
        k(  325) = (  -0.4000000   0.4000000  -0.2000000), wk =   0.0040000
        k(  326) = (  -0.4000000  -0.5000000   0.0000000), wk =   0.0040000
        k(  327) = (  -0.4000000  -0.5000000   0.2000000), wk =   0.0040000
        k(  328) = (  -0.4000000  -0.5000000   0.4000000), wk =   0.0040000
        k(  329) = (  -0.4000000  -0.5000000  -0.4000000), wk =   0.0040000
        k(  330) = (  -0.4000000  -0.5000000  -0.2000000), wk =   0.0040000
        k(  331) = (  -0.4000000  -0.4000000   0.0000000), wk =   0.0040000
        k(  332) = (  -0.4000000  -0.4000000   0.2000000), wk =   0.0040000
        k(  333) = (  -0.4000000  -0.4000000   0.4000000), wk =   0.0040000
        k(  334) = (  -0.4000000  -0.4000000  -0.4000000), wk =   0.0040000
        k(  335) = (  -0.4000000  -0.4000000  -0.2000000), wk =   0.0040000
        k(  336) = (  -0.4000000  -0.3000000   0.0000000), wk =   0.0040000
        k(  337) = (  -0.4000000  -0.3000000   0.2000000), wk =   0.0040000
        k(  338) = (  -0.4000000  -0.3000000   0.4000000), wk =   0.0040000
        k(  339) = (  -0.4000000  -0.3000000  -0.4000000), wk =   0.0040000
        k(  340) = (  -0.4000000  -0.3000000  -0.2000000), wk =   0.0040000
        k(  341) = (  -0.4000000  -0.2000000   0.0000000), wk =   0.0040000
        k(  342) = (  -0.4000000  -0.2000000   0.2000000), wk =   0.0040000
        k(  343) = (  -0.4000000  -0.2000000   0.4000000), wk =   0.0040000
        k(  344) = (  -0.4000000  -0.2000000  -0.4000000), wk =   0.0040000
        k(  345) = (  -0.4000000  -0.2000000  -0.2000000), wk =   0.0040000
        k(  346) = (  -0.4000000  -0.1000000   0.0000000), wk =   0.0040000
        k(  347) = (  -0.4000000  -0.1000000   0.2000000), wk =   0.0040000
        k(  348) = (  -0.4000000  -0.1000000   0.4000000), wk =   0.0040000
        k(  349) = (  -0.4000000  -0.1000000  -0.4000000), wk =   0.0040000
        k(  350) = (  -0.4000000  -0.1000000  -0.2000000), wk =   0.0040000
        k(  351) = (  -0.3000000   0.0000000   0.0000000), wk =   0.0040000
        k(  352) = (  -0.3000000   0.0000000   0.2000000), wk =   0.0040000
        k(  353) = (  -0.3000000   0.0000000   0.4000000), wk =   0.0040000
        k(  354) = (  -0.3000000   0.0000000  -0.4000000), wk =   0.0040000
        k(  355) = (  -0.3000000   0.0000000  -0.2000000), wk =   0.0040000
        k(  356) = (  -0.3000000   0.1000000   0.0000000), wk =   0.0040000
        k(  357) = (  -0.3000000   0.1000000   0.2000000), wk =   0.0040000
        k(  358) = (  -0.3000000   0.1000000   0.4000000), wk =   0.0040000
        k(  359) = (  -0.3000000   0.1000000  -0.4000000), wk =   0.0040000
        k(  360) = (  -0.3000000   0.1000000  -0.2000000), wk =   0.0040000
        k(  361) = (  -0.3000000   0.2000000   0.0000000), wk =   0.0040000
        k(  362) = (  -0.3000000   0.2000000   0.2000000), wk =   0.0040000
        k(  363) = (  -0.3000000   0.2000000   0.4000000), wk =   0.0040000
        k(  364) = (  -0.3000000   0.2000000  -0.4000000), wk =   0.0040000
        k(  365) = (  -0.3000000   0.2000000  -0.2000000), wk =   0.0040000
        k(  366) = (  -0.3000000   0.3000000   0.0000000), wk =   0.0040000
        k(  367) = (  -0.3000000   0.3000000   0.2000000), wk =   0.0040000
        k(  368) = (  -0.3000000   0.3000000   0.4000000), wk =   0.0040000
        k(  369) = (  -0.3000000   0.3000000  -0.4000000), wk =   0.0040000
        k(  370) = (  -0.3000000   0.3000000  -0.2000000), wk =   0.0040000
        k(  371) = (  -0.3000000   0.4000000   0.0000000), wk =   0.0040000
        k(  372) = (  -0.3000000   0.4000000   0.2000000), wk =   0.0040000
        k(  373) = (  -0.3000000   0.4000000   0.4000000), wk =   0.0040000
        k(  374) = (  -0.3000000   0.4000000  -0.4000000), wk =   0.0040000
        k(  375) = (  -0.3000000   0.4000000  -0.2000000), wk =   0.0040000
        k(  376) = (  -0.3000000  -0.5000000   0.0000000), wk =   0.0040000
        k(  377) = (  -0.3000000  -0.5000000   0.2000000), wk =   0.0040000
        k(  378) = (  -0.3000000  -0.5000000   0.4000000), wk =   0.0040000
        k(  379) = (  -0.3000000  -0.5000000  -0.4000000), wk =   0.0040000
        k(  380) = (  -0.3000000  -0.5000000  -0.2000000), wk =   0.0040000
        k(  381) = (  -0.3000000  -0.4000000   0.0000000), wk =   0.0040000
        k(  382) = (  -0.3000000  -0.4000000   0.2000000), wk =   0.0040000
        k(  383) = (  -0.3000000  -0.4000000   0.4000000), wk =   0.0040000
        k(  384) = (  -0.3000000  -0.4000000  -0.4000000), wk =   0.0040000
        k(  385) = (  -0.3000000  -0.4000000  -0.2000000), wk =   0.0040000
        k(  386) = (  -0.3000000  -0.3000000   0.0000000), wk =   0.0040000
        k(  387) = (  -0.3000000  -0.3000000   0.2000000), wk =   0.0040000
        k(  388) = (  -0.3000000  -0.3000000   0.4000000), wk =   0.0040000
        k(  389) = (  -0.3000000  -0.3000000  -0.4000000), wk =   0.0040000
        k(  390) = (  -0.3000000  -0.3000000  -0.2000000), wk =   0.0040000
        k(  391) = (  -0.3000000  -0.2000000   0.0000000), wk =   0.0040000
        k(  392) = (  -0.3000000  -0.2000000   0.2000000), wk =   0.0040000
        k(  393) = (  -0.3000000  -0.2000000   0.4000000), wk =   0.0040000
        k(  394) = (  -0.3000000  -0.2000000  -0.4000000), wk =   0.0040000
        k(  395) = (  -0.3000000  -0.2000000  -0.2000000), wk =   0.0040000
        k(  396) = (  -0.3000000  -0.1000000   0.0000000), wk =   0.0040000
        k(  397) = (  -0.3000000  -0.1000000   0.2000000), wk =   0.0040000
        k(  398) = (  -0.3000000  -0.1000000   0.4000000), wk =   0.0040000
        k(  399) = (  -0.3000000  -0.1000000  -0.4000000), wk =   0.0040000
        k(  400) = (  -0.3000000  -0.1000000  -0.2000000), wk =   0.0040000
        k(  401) = (  -0.2000000   0.0000000   0.0000000), wk =   0.0040000
        k(  402) = (  -0.2000000   0.0000000   0.2000000), wk =   0.0040000
        k(  403) = (  -0.2000000   0.0000000   0.4000000), wk =   0.0040000
        k(  404) = (  -0.2000000   0.0000000  -0.4000000), wk =   0.0040000
        k(  405) = (  -0.2000000   0.0000000  -0.2000000), wk =   0.0040000
        k(  406) = (  -0.2000000   0.1000000   0.0000000), wk =   0.0040000
        k(  407) = (  -0.2000000   0.1000000   0.2000000), wk =   0.0040000
        k(  408) = (  -0.2000000   0.1000000   0.4000000), wk =   0.0040000
        k(  409) = (  -0.2000000   0.1000000  -0.4000000), wk =   0.0040000
        k(  410) = (  -0.2000000   0.1000000  -0.2000000), wk =   0.0040000
        k(  411) = (  -0.2000000   0.2000000   0.0000000), wk =   0.0040000
        k(  412) = (  -0.2000000   0.2000000   0.2000000), wk =   0.0040000
        k(  413) = (  -0.2000000   0.2000000   0.4000000), wk =   0.0040000
        k(  414) = (  -0.2000000   0.2000000  -0.4000000), wk =   0.0040000
        k(  415) = (  -0.2000000   0.2000000  -0.2000000), wk =   0.0040000
        k(  416) = (  -0.2000000   0.3000000   0.0000000), wk =   0.0040000
        k(  417) = (  -0.2000000   0.3000000   0.2000000), wk =   0.0040000
        k(  418) = (  -0.2000000   0.3000000   0.4000000), wk =   0.0040000
        k(  419) = (  -0.2000000   0.3000000  -0.4000000), wk =   0.0040000
        k(  420) = (  -0.2000000   0.3000000  -0.2000000), wk =   0.0040000
        k(  421) = (  -0.2000000   0.4000000   0.0000000), wk =   0.0040000
        k(  422) = (  -0.2000000   0.4000000   0.2000000), wk =   0.0040000
        k(  423) = (  -0.2000000   0.4000000   0.4000000), wk =   0.0040000
        k(  424) = (  -0.2000000   0.4000000  -0.4000000), wk =   0.0040000
        k(  425) = (  -0.2000000   0.4000000  -0.2000000), wk =   0.0040000
        k(  426) = (  -0.2000000  -0.5000000   0.0000000), wk =   0.0040000
        k(  427) = (  -0.2000000  -0.5000000   0.2000000), wk =   0.0040000
        k(  428) = (  -0.2000000  -0.5000000   0.4000000), wk =   0.0040000
        k(  429) = (  -0.2000000  -0.5000000  -0.4000000), wk =   0.0040000
        k(  430) = (  -0.2000000  -0.5000000  -0.2000000), wk =   0.0040000
        k(  431) = (  -0.2000000  -0.4000000   0.0000000), wk =   0.0040000
        k(  432) = (  -0.2000000  -0.4000000   0.2000000), wk =   0.0040000
        k(  433) = (  -0.2000000  -0.4000000   0.4000000), wk =   0.0040000
        k(  434) = (  -0.2000000  -0.4000000  -0.4000000), wk =   0.0040000
        k(  435) = (  -0.2000000  -0.4000000  -0.2000000), wk =   0.0040000
        k(  436) = (  -0.2000000  -0.3000000   0.0000000), wk =   0.0040000
        k(  437) = (  -0.2000000  -0.3000000   0.2000000), wk =   0.0040000
        k(  438) = (  -0.2000000  -0.3000000   0.4000000), wk =   0.0040000
        k(  439) = (  -0.2000000  -0.3000000  -0.4000000), wk =   0.0040000
        k(  440) = (  -0.2000000  -0.3000000  -0.2000000), wk =   0.0040000
        k(  441) = (  -0.2000000  -0.2000000   0.0000000), wk =   0.0040000
        k(  442) = (  -0.2000000  -0.2000000   0.2000000), wk =   0.0040000
        k(  443) = (  -0.2000000  -0.2000000   0.4000000), wk =   0.0040000
        k(  444) = (  -0.2000000  -0.2000000  -0.4000000), wk =   0.0040000
        k(  445) = (  -0.2000000  -0.2000000  -0.2000000), wk =   0.0040000
        k(  446) = (  -0.2000000  -0.1000000   0.0000000), wk =   0.0040000
        k(  447) = (  -0.2000000  -0.1000000   0.2000000), wk =   0.0040000
        k(  448) = (  -0.2000000  -0.1000000   0.4000000), wk =   0.0040000
        k(  449) = (  -0.2000000  -0.1000000  -0.4000000), wk =   0.0040000
        k(  450) = (  -0.2000000  -0.1000000  -0.2000000), wk =   0.0040000
        k(  451) = (  -0.1000000   0.0000000   0.0000000), wk =   0.0040000
        k(  452) = (  -0.1000000   0.0000000   0.2000000), wk =   0.0040000
        k(  453) = (  -0.1000000   0.0000000   0.4000000), wk =   0.0040000
        k(  454) = (  -0.1000000   0.0000000  -0.4000000), wk =   0.0040000
        k(  455) = (  -0.1000000   0.0000000  -0.2000000), wk =   0.0040000
        k(  456) = (  -0.1000000   0.1000000   0.0000000), wk =   0.0040000
        k(  457) = (  -0.1000000   0.1000000   0.2000000), wk =   0.0040000
        k(  458) = (  -0.1000000   0.1000000   0.4000000), wk =   0.0040000
        k(  459) = (  -0.1000000   0.1000000  -0.4000000), wk =   0.0040000
        k(  460) = (  -0.1000000   0.1000000  -0.2000000), wk =   0.0040000
        k(  461) = (  -0.1000000   0.2000000   0.0000000), wk =   0.0040000
        k(  462) = (  -0.1000000   0.2000000   0.2000000), wk =   0.0040000
        k(  463) = (  -0.1000000   0.2000000   0.4000000), wk =   0.0040000
        k(  464) = (  -0.1000000   0.2000000  -0.4000000), wk =   0.0040000
        k(  465) = (  -0.1000000   0.2000000  -0.2000000), wk =   0.0040000
        k(  466) = (  -0.1000000   0.3000000   0.0000000), wk =   0.0040000
        k(  467) = (  -0.1000000   0.3000000   0.2000000), wk =   0.0040000
        k(  468) = (  -0.1000000   0.3000000   0.4000000), wk =   0.0040000
        k(  469) = (  -0.1000000   0.3000000  -0.4000000), wk =   0.0040000
        k(  470) = (  -0.1000000   0.3000000  -0.2000000), wk =   0.0040000
        k(  471) = (  -0.1000000   0.4000000   0.0000000), wk =   0.0040000
        k(  472) = (  -0.1000000   0.4000000   0.2000000), wk =   0.0040000
        k(  473) = (  -0.1000000   0.4000000   0.4000000), wk =   0.0040000
        k(  474) = (  -0.1000000   0.4000000  -0.4000000), wk =   0.0040000
        k(  475) = (  -0.1000000   0.4000000  -0.2000000), wk =   0.0040000
        k(  476) = (  -0.1000000  -0.5000000   0.0000000), wk =   0.0040000
        k(  477) = (  -0.1000000  -0.5000000   0.2000000), wk =   0.0040000
        k(  478) = (  -0.1000000  -0.5000000   0.4000000), wk =   0.0040000
        k(  479) = (  -0.1000000  -0.5000000  -0.4000000), wk =   0.0040000
        k(  480) = (  -0.1000000  -0.5000000  -0.2000000), wk =   0.0040000
        k(  481) = (  -0.1000000  -0.4000000   0.0000000), wk =   0.0040000
        k(  482) = (  -0.1000000  -0.4000000   0.2000000), wk =   0.0040000
        k(  483) = (  -0.1000000  -0.4000000   0.4000000), wk =   0.0040000
        k(  484) = (  -0.1000000  -0.4000000  -0.4000000), wk =   0.0040000
        k(  485) = (  -0.1000000  -0.4000000  -0.2000000), wk =   0.0040000
        k(  486) = (  -0.1000000  -0.3000000   0.0000000), wk =   0.0040000
        k(  487) = (  -0.1000000  -0.3000000   0.2000000), wk =   0.0040000
[...]
    12.2069  13.6466  14.9773  15.2673

     occupation numbers 
     1.0000   1.0000   1.0000   1.0000   1.0000   1.0000   1.0000   1.0000
     0.0000   0.0000   0.0000   0.0000   0.0000   0.0000   0.0000   0.0000
     0.0000   0.0000   0.0000   0.0000

          k =-0.1000 0.2887 0.0000 (  4807 PWs)   bands (ev):

    -5.1775  -2.8729  -0.8327   1.7727   2.9298   3.2474   4.8300   4.9531
     7.8363   8.9645   9.2589   9.7560   9.8898  10.7938  11.6911  12.3496
    13.8625  14.1256  14.5111  15.4947

     occupation numbers 
     1.0000   1.0000   1.0000   1.0000   1.0000   1.0000   1.0000   1.0000
     0.0000   0.0000   0.0000   0.0000   0.0000   0.0000   0.0000   0.0000
     0.0000   0.0000   0.0000   0.0000

          k =-0.1000 0.2887 0.1210 (  4811 PWs)   bands (ev):

    -5.0502  -3.3372  -0.2580   2.0124   2.4685   3.3819   4.6807   4.8798
     7.6529   8.6433   9.3208   9.4908  10.5198  11.2544  11.7298  12.2977
    13.4830  13.8217  14.9030  15.5611

     occupation numbers 
     1.0000   1.0000   1.0000   1.0000   1.0000   1.0000   1.0000   1.0000
     0.0000   0.0000   0.0000   0.0000   0.0000   0.0000   0.0000   0.0000
     0.0000   0.0000   0.0000   0.0000

          k =-0.1000 0.2887 0.2420 (  4807 PWs)   bands (ev):

    -4.6741  -4.0743   0.7252   1.6382   2.7907   3.7024   3.9779   4.2251
     7.9379   8.7011   9.1230   9.8583  10.5437  10.9567  11.4740  12.5734
    13.6987  13.8851  14.8520  16.1462

     occupation numbers 
     1.0000   1.0000   1.0000   1.0000   1.0000   1.0000   1.0000   1.0000
     0.0000   0.0000   0.0000   0.0000   0.0000   0.0000   0.0000   0.0000
     0.0000   0.0000   0.0000   0.0000

          k =-0.1000 0.2887-0.2420 (  4807 PWs)   bands (ev):

    -4.6741  -4.0743   0.7252   1.6382   2.7907   3.7024   3.9779   4.2251
     7.9379   8.7011   9.1230   9.8583  10.5437  10.9567  11.4740  12.5734
    13.6987  13.8851  14.8520  16.1462

     occupation numbers 
     1.0000   1.0000   1.0000   1.0000   1.0000   1.0000   1.0000   1.0000
     0.0000   0.0000   0.0000   0.0000   0.0000   0.0000   0.0000   0.0000
     0.0000   0.0000   0.0000   0.0000

          k =-0.1000 0.2887-0.1210 (  4811 PWs)   bands (ev):

    -5.0502  -3.3372  -0.2580   2.0124   2.4685   3.3819   4.6807   4.8798
     7.6529   8.6433   9.3208   9.4908  10.5198  11.2544  11.7298  12.2977
    13.4830  13.8217  14.9030  15.5611

     occupation numbers 
     1.0000   1.0000   1.0000   1.0000   1.0000   1.0000   1.0000   1.0000
     0.0000   0.0000   0.0000   0.0000   0.0000   0.0000   0.0000   0.0000
     0.0000   0.0000   0.0000   0.0000

          k =-0.1000 0.4041 0.0000 (  4814 PWs)   bands (ev):

    -4.5380  -2.2111  -1.2854   1.3633   1.5527   2.7997   4.0569   4.5126
     7.5454   8.5971   9.4824   9.8764  10.0127  11.9336  12.6679  13.2172
    13.4747  14.8331  15.7061  16.0583

     occupation numbers 
     1.0000   1.0000   1.0000   1.0000   1.0000   1.0000   1.0000   1.0000
     0.0000   0.0000   0.0000   0.0000   0.0000   0.0000   0.0000   0.0000
     0.0000   0.0000   0.0000   0.0000

          k =-0.1000 0.4041 0.1210 (  4810 PWs)   bands (ev):

    -4.4133  -2.7279  -0.8599   1.1434   1.7937   2.9386   4.2067   4.4103
     7.4887   8.2690   9.0905   9.3629  11.0935  11.5624  12.3900  13.1740
    14.4184  14.5721  15.2966  16.5498

     occupation numbers 
     1.0000   1.0000   1.0000   1.0000   1.0000   1.0000   1.0000   1.0000
     0.0000   0.0000   0.0000   0.0000   0.0000   0.0000   0.0000   0.0000
     0.0000   0.0000   0.0000   0.0000

          k =-0.1000 0.4041 0.2420 (  4809 PWs)   bands (ev):

    -4.0457  -3.4595  -0.2500   0.4261   2.8203   3.3349   3.6636   4.2112
     7.4245   8.2495   8.4960   9.4176  10.5593  11.9122  12.3793  13.1221
    14.2043  15.3018  15.9590  16.3236

     occupation numbers 
     1.0000   1.0000   1.0000   1.0000   1.0000   1.0000   1.0000   1.0000
     0.0000   0.0000   0.0000   0.0000   0.0000   0.0000   0.0000   0.0000
     0.0000   0.0000   0.0000   0.0000

          k =-0.1000 0.4041-0.2420 (  4809 PWs)   bands (ev):

    -4.0457  -3.4595  -0.2500   0.4261   2.8203   3.3349   3.6636   4.2112
     7.4245   8.2495   8.4960   9.4176  10.5593  11.9122  12.3793  13.1221
    14.2043  15.3018  15.9590  16.3236

     occupation numbers 
     1.0000   1.0000   1.0000   1.0000   1.0000   1.0000   1.0000   1.0000
     0.0000   0.0000   0.0000   0.0000   0.0000   0.0000   0.0000   0.0000
     0.0000   0.0000   0.0000   0.0000

          k =-0.1000 0.4041-0.1210 (  4810 PWs)   bands (ev):

    -4.4133  -2.7279  -0.8599   1.1434   1.7937   2.9386   4.2067   4.4103
     7.4887   8.2690   9.0905   9.3629  11.0935  11.5624  12.3900  13.1740
    14.4184  14.5721  15.2966  16.5498

     occupation numbers 
     1.0000   1.0000   1.0000   1.0000   1.0000   1.0000   1.0000   1.0000
     0.0000   0.0000   0.0000   0.0000   0.0000   0.0000   0.0000   0.0000
     0.0000   0.0000   0.0000   0.0000

          k =-0.1000-0.6351 0.0000 (  4816 PWs)   bands (ev):

    -3.8529  -2.0652  -1.4854   0.4463   1.5187   2.6667   3.3411   4.2865
     7.3799   8.2656   9.2755  10.1566  10.5195  12.3426  12.5793  13.6477
    14.9874  15.1951  16.2804  16.5535

     occupation numbers 
     1.0000   1.0000   1.0000   1.0000   1.0000   1.0000   1.0000   1.0000
     0.0000   0.0000   0.0000   0.0000   0.0000   0.0000   0.0000   0.0000
     0.0000   0.0000   0.0000   0.0000

          k =-0.1000-0.6351 0.1210 (  4808 PWs)   bands (ev):

    -3.7346  -2.3054  -1.4420   0.0791   1.9928   2.8362   3.7546   4.0455
     7.4790   7.9477   9.1805   9.3109  10.2907  11.9968  13.7774  14.2668
    14.6713  15.4372  15.7547  16.9053

     occupation numbers 
     1.0000   1.0000   1.0000   1.0000   1.0000   1.0000   1.0000   1.0000
     0.0000   0.0000   0.0000   0.0000   0.0000   0.0000   0.0000   0.0000
     0.0000   0.0000   0.0000   0.0000

          k =-0.1000-0.6351 0.2420 (  4809 PWs)   bands (ev):

    -3.3907  -2.8656  -1.1268  -0.5748   2.8075   3.4073   3.4984   4.2349
     7.1902   7.8146   8.3100   8.7049  10.4416  12.1226  13.5611  14.5028
    14.8849  15.9958  16.5186  16.9970

     occupation numbers 
     1.0000   1.0000   1.0000   1.0000   1.0000   1.0000   1.0000   1.0000
     0.0000   0.0000   0.0000   0.0000   0.0000   0.0000   0.0000   0.0000
     0.0000   0.0000   0.0000   0.0000

          k =-0.1000-0.6351-0.2420 (  4809 PWs)   bands (ev):

    -3.3907  -2.8656  -1.1268  -0.5748   2.8075   3.4073   3.4984   4.2349
     7.1902   7.8146   8.3100   8.7049  10.4416  12.1226  13.5611  14.5028
    14.8849  15.9958  16.5187  16.9971

     occupation numbers 
     1.0000   1.0000   1.0000   1.0000   1.0000   1.0000   1.0000   1.0000
     0.0000   0.0000   0.0000   0.0000   0.0000   0.0000   0.0000   0.0000
     0.0000   0.0000   0.0000   0.0000

          k =-0.1000-0.6351-0.1210 (  4808 PWs)   bands (ev):

    -3.7346  -2.3054  -1.4420   0.0791   1.9928   2.8362   3.7546   4.0455
     7.4790   7.9477   9.1805   9.3109  10.2907  11.9968  13.7774  14.2668
    14.6713  15.4372  15.7547  16.9053

     occupation numbers 
     1.0000   1.0000   1.0000   1.0000   1.0000   1.0000   1.0000   1.0000
     0.0000   0.0000   0.0000   0.0000   0.0000   0.0000   0.0000   0.0000
     0.0000   0.0000   0.0000   0.0000

          k =-0.1000-0.5196 0.0000 (  4816 PWs)   bands (ev):

    -3.8529  -2.0652  -1.4854   0.4463   1.5187   2.6667   3.3411   4.2865
     7.3799   8.2656   9.2755  10.1566  10.5195  12.3426  12.5793  13.6477
    14.9874  15.1951  16.2804  16.5535

     occupation numbers 
     1.0000   1.0000   1.0000   1.0000   1.0000   1.0000   1.0000   1.0000
     0.0000   0.0000   0.0000   0.0000   0.0000   0.0000   0.0000   0.0000
     0.0000   0.0000   0.0000   0.0000

          k =-0.1000-0.5196 0.1210 (  4808 PWs)   bands (ev):

    -3.7346  -2.3054  -1.4420   0.0791   1.9928   2.8362   3.7546   4.0455
     7.4790   7.9477   9.1805   9.3109  10.2907  11.9968  13.7774  14.2668
    14.6713  15.4372  15.7547  16.9053

     occupation numbers 
     1.0000   1.0000   1.0000   1.0000   1.0000   1.0000   1.0000   1.0000
     0.0000   0.0000   0.0000   0.0000   0.0000   0.0000   0.0000   0.0000
     0.0000   0.0000   0.0000   0.0000

          k =-0.1000-0.5196 0.2420 (  4809 PWs)   bands (ev):

    -3.3907  -2.8656  -1.1268  -0.5748   2.8075   3.4073   3.4984   4.2349
     7.1902   7.8146   8.3100   8.7049  10.4416  12.1226  13.5611  14.5028
    14.8849  15.9958  16.5186  16.9970

     occupation numbers 
     1.0000   1.0000   1.0000   1.0000   1.0000   1.0000   1.0000   1.0000
     0.0000   0.0000   0.0000   0.0000   0.0000   0.0000   0.0000   0.0000
     0.0000   0.0000   0.0000   0.0000

          k =-0.1000-0.5196-0.2420 (  4809 PWs)   bands (ev):

    -3.3907  -2.8656  -1.1268  -0.5748   2.8075   3.4073   3.4984   4.2349
     7.1902   7.8146   8.3100   8.7049  10.4416  12.1226  13.5611  14.5028
    14.8849  15.9958  16.5187  16.9972

     occupation numbers 
     1.0000   1.0000   1.0000   1.0000   1.0000   1.0000   1.0000   1.0000
     0.0000   0.0000   0.0000   0.0000   0.0000   0.0000   0.0000   0.0000
     0.0000   0.0000   0.0000   0.0000

          k =-0.1000-0.5196-0.1210 (  4808 PWs)   bands (ev):

    -3.7346  -2.3054  -1.4420   0.0791   1.9928   2.8362   3.7546   4.0455
     7.4790   7.9477   9.1805   9.3109  10.2907  11.9968  13.7774  14.2668
    14.6713  15.4372  15.7547  16.9053

     occupation numbers 
     1.0000   1.0000   1.0000   1.0000   1.0000   1.0000   1.0000   1.0000
     0.0000   0.0000   0.0000   0.0000   0.0000   0.0000   0.0000   0.0000
     0.0000   0.0000   0.0000   0.0000

          k =-0.1000-0.4041 0.0000 (  4814 PWs)   bands (ev):

    -4.5380  -2.2111  -1.2854   1.3633   1.5527   2.7997   4.0569   4.5126
     7.5454   8.5971   9.4824   9.8764  10.0127  11.9336  12.6679  13.2172
    13.4747  14.8331  15.7061  16.0583

     occupation numbers 
     1.0000   1.0000   1.0000   1.0000   1.0000   1.0000   1.0000   1.0000
     0.0000   0.0000   0.0000   0.0000   0.0000   0.0000   0.0000   0.0000
     0.0000   0.0000   0.0000   0.0000

          k =-0.1000-0.4041 0.1210 (  4810 PWs)   bands (ev):

    -4.4133  -2.7279  -0.8599   1.1434   1.7937   2.9386   4.2067   4.4103
     7.4887   8.2690   9.0905   9.3629  11.0935  11.5624  12.3900  13.1740
    14.4184  14.5721  15.2966  16.5498

     occupation numbers 
     1.0000   1.0000   1.0000   1.0000   1.0000   1.0000   1.0000   1.0000
     0.0000   0.0000   0.0000   0.0000   0.0000   0.0000   0.0000   0.0000
     0.0000   0.0000   0.0000   0.0000

          k =-0.1000-0.4041 0.2420 (  4809 PWs)   bands (ev):

    -4.0457  -3.4595  -0.2500   0.4261   2.8203   3.3349   3.6636   4.2112
     7.4245   8.2495   8.4960   9.4176  10.5593  11.9122  12.3793  13.1221
    14.2043  15.3018  15.9590  16.3236

     occupation numbers 
     1.0000   1.0000   1.0000   1.0000   1.0000   1.0000   1.0000   1.0000
     0.0000   0.0000   0.0000   0.0000   0.0000   0.0000   0.0000   0.0000
     0.0000   0.0000   0.0000   0.0000

          k =-0.1000-0.4041-0.2420 (  4809 PWs)   bands (ev):

    -4.0457  -3.4595  -0.2500   0.4261   2.8203   3.3349   3.6636   4.2112
     7.4245   8.2495   8.4960   9.4176  10.5593  11.9122  12.3793  13.1221
    14.2043  15.3018  15.9590  16.3236

     occupation numbers 
     1.0000   1.0000   1.0000   1.0000   1.0000   1.0000   1.0000   1.0000
     0.0000   0.0000   0.0000   0.0000   0.0000   0.0000   0.0000   0.0000
     0.0000   0.0000   0.0000   0.0000

          k =-0.1000-0.4041-0.1210 (  4810 PWs)   bands (ev):

    -4.4133  -2.7279  -0.8599   1.1434   1.7937   2.9386   4.2067   4.4103
     7.4887   8.2690   9.0905   9.3629  11.0935  11.5624  12.3900  13.1740
    14.4184  14.5721  15.2966  16.5498

     occupation numbers 
     1.0000   1.0000   1.0000   1.0000   1.0000   1.0000   1.0000   1.0000
     0.0000   0.0000   0.0000   0.0000   0.0000   0.0000   0.0000   0.0000
     0.0000   0.0000   0.0000   0.0000

          k =-0.1000-0.2887 0.0000 (  4807 PWs)   bands (ev):

    -5.1775  -2.8729  -0.8327   1.7727   2.9298   3.2474   4.8300   4.9531
     7.8363   8.9645   9.2589   9.7560   9.8898  10.7938  11.6911  12.3496
    13.8625  14.1256  14.5111  15.4947

     occupation numbers 
     1.0000   1.0000   1.0000   1.0000   1.0000   1.0000   1.0000   1.0000
     0.0000   0.0000   0.0000   0.0000   0.0000   0.0000   0.0000   0.0000
     0.0000   0.0000   0.0000   0.0000

          k =-0.1000-0.2887 0.1210 (  4811 PWs)   bands (ev):

    -5.0502  -3.3372  -0.2580   2.0124   2.4685   3.3819   4.6807   4.8798
     7.6529   8.6433   9.3208   9.4908  10.5198  11.2544  11.7298  12.2977
    13.4830  13.8217  14.9030  15.5611

     occupation numbers 
     1.0000   1.0000   1.0000   1.0000   1.0000   1.0000   1.0000   1.0000
     0.0000   0.0000   0.0000   0.0000   0.0000   0.0000   0.0000   0.0000
     0.0000   0.0000   0.0000   0.0000

          k =-0.1000-0.2887 0.2420 (  4807 PWs)   bands (ev):

    -4.6741  -4.0743   0.7252   1.6382   2.7907   3.7024   3.9779   4.2251
     7.9379   8.7011   9.1230   9.8583  10.5437  10.9567  11.4740  12.5734
    13.6987  13.8851  14.8520  16.1462

     occupation numbers 
     1.0000   1.0000   1.0000   1.0000   1.0000   1.0000   1.0000   1.0000
     0.0000   0.0000   0.0000   0.0000   0.0000   0.0000   0.0000   0.0000
     0.0000   0.0000   0.0000   0.0000

          k =-0.1000-0.2887-0.2420 (  4807 PWs)   bands (ev):

    -4.6741  -4.0743   0.7252   1.6382   2.7907   3.7024   3.9779   4.2251
     7.9379   8.7011   9.1230   9.8583  10.5437  10.9567  11.4740  12.5734
    13.6987  13.8851  14.8520  16.1462

     occupation numbers 
     1.0000   1.0000   1.0000   1.0000   1.0000   1.0000   1.0000   1.0000
     0.0000   0.0000   0.0000   0.0000   0.0000   0.0000   0.0000   0.0000
     0.0000   0.0000   0.0000   0.0000

          k =-0.1000-0.2887-0.1210 (  4811 PWs)   bands (ev):

    -5.0502  -3.3372  -0.2580   2.0124   2.4685   3.3819   4.6807   4.8798
     7.6529   8.6433   9.3208   9.4908  10.5198  11.2544  11.7298  12.2977
    13.4830  13.8217  14.9030  15.5611

     occupation numbers 
     1.0000   1.0000   1.0000   1.0000   1.0000   1.0000   1.0000   1.0000
     0.0000   0.0000   0.0000   0.0000   0.0000   0.0000   0.0000   0.0000
     0.0000   0.0000   0.0000   0.0000

          k =-0.1000-0.1732 0.0000 (  4809 PWs)   bands (ev):

    -5.6286  -3.3353  -0.8590   2.8017   3.9232   4.3077   5.4041   5.5499
     8.1073   8.2946   8.8347   9.5989  10.3736  10.3841  10.9321  11.6386
    12.3347  13.8669  14.6251  15.5542

     occupation numbers 
     1.0000   1.0000   1.0000   1.0000   1.0000   1.0000   1.0000   1.0002
     0.0000   0.0000   0.0000   0.0000   0.0000   0.0000   0.0000   0.0000
     0.0000   0.0000   0.0000   0.0000

          k =-0.1000-0.1732 0.1210 (  4817 PWs)   bands (ev):

    -5.5002  -3.7829  -0.1994   2.9453   3.7093   4.0668   5.1161   5.3077
     8.0353   8.2754   9.2651   9.8372  10.0399  10.1749  11.7753  11.9185
    12.2069  13.6466  14.9773  15.2673

     occupation numbers 
     1.0000   1.0000   1.0000   1.0000   1.0000   1.0000   1.0000   1.0000
     0.0000   0.0000   0.0000   0.0000   0.0000   0.0000   0.0000   0.0000
     0.0000   0.0000   0.0000   0.0000

          k =-0.1000-0.1732 0.2420 (  4797 PWs)   bands (ev):

    -5.1211  -4.5174   1.1320   2.5606   3.3885   4.1694   4.3574   4.8156
     8.5347   8.6719   9.1696   9.2844  10.4275  10.4435  11.5372  12.0033
    13.1708  13.7579  14.5440  15.5139

     occupation numbers 
     1.0000   1.0000   1.0000   1.0000   1.0000   1.0000   1.0000   1.0000
     0.0000   0.0000   0.0000   0.0000   0.0000   0.0000   0.0000   0.0000
     0.0000   0.0000   0.0000   0.0000

          k =-0.1000-0.1732-0.2420 (  4797 PWs)   bands (ev):

    -5.1211  -4.5174   1.1320   2.5606   3.3885   4.1694   4.3574   4.8156
     8.5347   8.6719   9.1696   9.2844  10.4275  10.4435  11.5372  12.0033
    13.1708  13.7579  14.5440  15.5139

     occupation numbers 
     1.0000   1.0000   1.0000   1.0000   1.0000   1.0000   1.0000   1.0000
     0.0000   0.0000   0.0000   0.0000   0.0000   0.0000   0.0000   0.0000
     0.0000   0.0000   0.0000   0.0000

          k =-0.1000-0.1732-0.1210 (  4817 PWs)   bands (ev):

    -5.5002  -3.7829  -0.1994   2.9453   3.7093   4.0668   5.1161   5.3077
     8.0353   8.2754   9.2651   9.8372  10.0399  10.1749  11.7753  11.9185
    12.2069  13.6466  14.9773  15.2673

     occupation numbers 
     1.0000   1.0000   1.0000   1.0000   1.0000   1.0000   1.0000   1.0000
     0.0000   0.0000   0.0000   0.0000   0.0000   0.0000   0.0000   0.0000
     0.0000   0.0000   0.0000   0.0000

     the Fermi energy is     6.2381 ev

!    total energy              =     -31.74556634 Ry
     estimated scf accuracy    <          1.1E-10 Ry
     smearing contrib. (-TS)   =       0.00011650 Ry
     internal energy E=F+TS    =     -31.74568284 Ry

     The total energy is F=E-TS. E is the sum of the following terms:
     one-electron contribution =       9.09582577 Ry
     hartree contribution      =       2.23980438 Ry
     xc contribution           =      -9.59115931 Ry
     ewald contribution        =     -33.49015368 Ry

     convergence has been achieved in  11 iterations

     Writing all to output data dir temp/hexsi.save/ :
     XML data file, charge density, pseudopotentials, collected wavefunctions

     init_run     :      0.99s CPU      1.04s WALL (       1 calls)
     electrons    :     39.13s CPU     40.80s WALL (       1 calls)

     Called by init_run:
     wfcinit      :      0.97s CPU      1.00s WALL (       1 calls)
     wfcinit:wfcr :      0.92s CPU      0.95s WALL (     250 calls)
     potinit      :      0.00s CPU      0.02s WALL (       1 calls)
     hinit0       :      0.00s CPU      0.01s WALL (       1 calls)

     Called by electrons:
     c_bands      :     34.73s CPU     36.25s WALL (      11 calls)
     sum_band     :      4.37s CPU      4.47s WALL (      11 calls)
     v_of_rho     :      0.01s CPU      0.01s WALL (      12 calls)
     v_h          :      0.00s CPU      0.00s WALL (      12 calls)
     v_xc         :      0.00s CPU      0.01s WALL (      12 calls)
     mix_rho      :      0.01s CPU      0.01s WALL (      11 calls)

     Called by c_bands:
     init_us_2    :      0.18s CPU      0.18s WALL (    5750 calls)
     cegterg      :     33.50s CPU     34.25s WALL (    2750 calls)

     Called by sum_band:
     sum_band:wei :      0.05s CPU      0.06s WALL (      11 calls)
     sum_band:loo :      4.25s CPU      4.36s WALL (      11 calls)
     sum_band:buf :      0.03s CPU      0.04s WALL (    2750 calls)
     sum_band:ini :      0.08s CPU      0.09s WALL (    2750 calls)

     Called by *egterg:
     cdiaghg      :      3.91s CPU      3.97s WALL (   11013 calls)
     cegterg:over :      2.29s CPU      2.33s WALL (    8263 calls)
     cegterg:upda :      0.64s CPU      0.65s WALL (    8263 calls)
     cegterg:last :      0.99s CPU      1.00s WALL (    5596 calls)
     h_psi        :     25.33s CPU     25.97s WALL (   11263 calls)
     g_psi        :      0.08s CPU      0.08s WALL (    8263 calls)

     Called by h_psi:
     h_psi:calbec :      1.03s CPU      1.05s WALL (   11263 calls)
     vloc_psi     :     23.74s CPU     24.35s WALL (   11263 calls)
     add_vuspsi   :      0.49s CPU      0.50s WALL (   11263 calls)

     General routines
     calbec       :      1.02s CPU      1.04s WALL (   11263 calls)
     fft          :      0.01s CPU      0.01s WALL (      35 calls)
     ffts         :      0.00s CPU      0.00s WALL (      11 calls)
     fftw         :     26.67s CPU     27.35s WALL (  370074 calls)

     Parallel routines

     PWSCF        :     41.34s CPU     45.03s WALL


   This run was terminated on:  15: 8:16   6Feb2026            

=------------------------------------------------------------------------------=
   JOB DONE.
=------------------------------------------------------------------------------=
