
     Program BANDS v.7.3.1 starts on 11Feb2026 at 12:15:12 

     This program is part of the open-source Quantum ESPRESSO suite
     for quantum simulation of materials; please cite
         "P. Giannozzi et al., J. Phys.:Condens. Matter 21 395502 (2009);
         "P. Giannozzi et al., J. Phys.:Condens. Matter 29 465901 (2017);
         "P. Giannozzi et al., J. Chem. Phys. 152 154105 (2020);
          URL http://www.quantum-espresso.org", 
     in publications or presentations arising from this work. More details at
     http://www.quantum-espresso.org/quote

     Parallel version (MPI), running on    48 processors

     MPI processes distributed on     1 nodes
     R & G space division:  proc/nbgrp/npool/nimage =      48
     243651 MiB available memory on the printing compute node when the environment starts


     Reading xml data from directory:

     temp/hexge.save/

     IMPORTANT: XC functional enforced from input :
     Exchange-correlation= PZ
                           (   1   1   0   0   0   0   0)
     Any further DFT definition will be discarded
     Please, verify this is what you really want


     Parallelization info
     --------------------
     sticks:   dense  smooth     PW     G-vecs:    dense   smooth      PW
     Min          19      19      6                  801      801     136
     Max          20      20      7                  812      812     141
     Sum         955     955    295                38707    38707    6617

     Using Slab Decomposition

     Reading collected, re-writing distributed wavefunctions
     high-symmetry point:  0.0000 0.0000 0.0000   x coordinate   0.0000
     high-symmetry point:  0.0000 0.0000 0.2423   x coordinate   0.2423
     high-symmetry point:  0.0000 0.0000-0.2423   x coordinate   0.7269
     high-symmetry point:  0.0000 0.0000-0.1212   x coordinate   0.8481
     high-symmetry point:  0.0000 0.1155 0.0000   x coordinate   1.0154
     high-symmetry point:  0.0000 0.1155 0.2423   x coordinate   1.2577
     high-symmetry point:  0.0000 0.1155-0.2423   x coordinate   1.7423
     high-symmetry point:  0.0000 0.1155-0.1212   x coordinate   1.8635
     high-symmetry point:  0.0000 0.2309 0.0000   x coordinate   2.0308
     high-symmetry point:  0.0000 0.2309 0.2423   x coordinate   2.2731
     high-symmetry point:  0.0000 0.2309-0.2423   x coordinate   2.7577
     high-symmetry point:  0.0000 0.2309-0.1212   x coordinate   2.8789
     high-symmetry point:  0.0000 0.3464 0.0000   x coordinate   3.0463
     high-symmetry point:  0.0000 0.3464 0.2423   x coordinate   3.2886
     high-symmetry point:  0.0000 0.3464-0.2423   x coordinate   3.7732
     high-symmetry point:  0.0000 0.3464-0.1212   x coordinate   3.8943
     high-symmetry point:  0.0000 0.4619 0.0000   x coordinate   4.0617
     high-symmetry point:  0.0000 0.4619 0.2423   x coordinate   4.3040
     high-symmetry point:  0.0000 0.4619-0.2423   x coordinate   4.7886
     high-symmetry point:  0.0000 0.4619-0.1212   x coordinate   4.9097
     high-symmetry point:  0.0000-0.5774 0.0000   x coordinate   4.9097
     high-symmetry point:  0.0000-0.5774 0.2423   x coordinate   5.1520
     high-symmetry point:  0.0000-0.5774-0.2423   x coordinate   5.6366
     high-symmetry point:  0.0000-0.5774-0.1212   x coordinate   5.7578
     high-symmetry point:  0.0000-0.4619 0.0000   x coordinate   5.9251
     high-symmetry point:  0.0000-0.4619 0.2423   x coordinate   6.1674
     high-symmetry point:  0.0000-0.4619-0.2423   x coordinate   6.6520
     high-symmetry point:  0.0000-0.4619-0.1212   x coordinate   6.7732
     high-symmetry point:  0.0000-0.3464 0.0000   x coordinate   6.9406
     high-symmetry point:  0.0000-0.3464 0.2423   x coordinate   7.1829
     high-symmetry point:  0.0000-0.3464-0.2423   x coordinate   7.6675
     high-symmetry point:  0.0000-0.3464-0.1212   x coordinate   7.7886
     high-symmetry point:  0.0000-0.2309 0.0000   x coordinate   7.9560
     high-symmetry point:  0.0000-0.2309 0.2423   x coordinate   8.1983
     high-symmetry point:  0.0000-0.2309-0.2423   x coordinate   8.6829
     high-symmetry point:  0.0000-0.2309-0.1212   x coordinate   8.8040
     high-symmetry point:  0.0000-0.1155 0.0000   x coordinate   8.9714
     high-symmetry point:  0.0000-0.1155 0.2423   x coordinate   9.2137
     high-symmetry point:  0.0000-0.1155-0.2423   x coordinate   9.6983
     high-symmetry point:  0.0000-0.1155-0.1212   x coordinate   9.8194
     high-symmetry point:  0.1000 0.0577 0.0000   x coordinate  10.0533
     high-symmetry point:  0.1000 0.0577 0.2423   x coordinate  10.2956
     high-symmetry point:  0.1000 0.0577-0.2423   x coordinate  10.7802
     high-symmetry point:  0.1000 0.0577-0.1212   x coordinate  10.9013
     high-symmetry point:  0.1000 0.1732 0.0000   x coordinate  11.0687
     high-symmetry point:  0.1000 0.1732 0.2423   x coordinate  11.3110
     high-symmetry point:  0.1000 0.1732-0.2423   x coordinate  11.7956
     high-symmetry point:  0.1000 0.1732-0.1212   x coordinate  11.9167
     high-symmetry point:  0.1000 0.2887 0.0000   x coordinate  12.0841
     high-symmetry point:  0.1000 0.2887 0.2423   x coordinate  12.3264
     high-symmetry point:  0.1000 0.2887-0.2423   x coordinate  12.8110
     high-symmetry point:  0.1000 0.2887-0.1212   x coordinate  12.9322
     high-symmetry point:  0.1000 0.4041 0.0000   x coordinate  13.0995
     high-symmetry point:  0.1000 0.4041 0.2423   x coordinate  13.3418
     high-symmetry point:  0.1000 0.4041-0.2423   x coordinate  13.8264
     high-symmetry point:  0.1000 0.4041-0.1212   x coordinate  13.9476
     high-symmetry point:  0.1000 0.5196 0.0000   x coordinate  14.1149
     high-symmetry point:  0.1000 0.5196 0.2423   x coordinate  14.3572
     high-symmetry point:  0.1000 0.5196-0.2423   x coordinate  14.8418
     high-symmetry point:  0.1000 0.5196-0.1212   x coordinate  14.9630
     high-symmetry point:  0.1000-0.5196 0.0000   x coordinate  14.9630
     high-symmetry point:  0.1000-0.5196 0.2423   x coordinate  15.2053
     high-symmetry point:  0.1000-0.5196-0.2423   x coordinate  15.6899
     high-symmetry point:  0.1000-0.5196-0.1212   x coordinate  15.8110
     high-symmetry point:  0.1000-0.4041 0.0000   x coordinate  15.9784
     high-symmetry point:  0.1000-0.4041 0.2423   x coordinate  16.2207
     high-symmetry point:  0.1000-0.4041-0.2423   x coordinate  16.7053
     high-symmetry point:  0.1000-0.4041-0.1212   x coordinate  16.8265
     high-symmetry point:  0.1000-0.2887 0.0000   x coordinate  16.9938
     high-symmetry point:  0.1000-0.2887 0.2423   x coordinate  17.2361
     high-symmetry point:  0.1000-0.2887-0.2423   x coordinate  17.7207
     high-symmetry point:  0.1000-0.2887-0.1212   x coordinate  17.8419
     high-symmetry point:  0.1000-0.1732 0.0000   x coordinate  18.0092
     high-symmetry point:  0.1000-0.1732 0.2423   x coordinate  18.2515
     high-symmetry point:  0.1000-0.1732-0.2423   x coordinate  18.7361
     high-symmetry point:  0.1000-0.1732-0.1212   x coordinate  18.8573
     high-symmetry point:  0.1000-0.0577 0.0000   x coordinate  19.0247
     high-symmetry point:  0.1000-0.0577 0.2423   x coordinate  19.2670
     high-symmetry point:  0.1000-0.0577-0.2423   x coordinate  19.7516
     high-symmetry point:  0.1000-0.0577-0.1212   x coordinate  19.8727
     high-symmetry point:  0.2000 0.1155 0.0000   x coordinate  20.1065
     high-symmetry point:  0.2000 0.1155 0.2423   x coordinate  20.3488
     high-symmetry point:  0.2000 0.1155-0.2423   x coordinate  20.8334
     high-symmetry point:  0.2000 0.1155-0.1212   x coordinate  20.9546
     high-symmetry point:  0.2000 0.2309 0.0000   x coordinate  21.1220
     high-symmetry point:  0.2000 0.2309 0.2423   x coordinate  21.3643
     high-symmetry point:  0.2000 0.2309-0.2423   x coordinate  21.8489
     high-symmetry point:  0.2000 0.2309-0.1212   x coordinate  21.9700
     high-symmetry point:  0.2000 0.3464 0.0000   x coordinate  22.1374
     high-symmetry point:  0.2000 0.3464 0.2423   x coordinate  22.3797
     high-symmetry point:  0.2000 0.3464-0.2423   x coordinate  22.8643
     high-symmetry point:  0.2000 0.3464-0.1212   x coordinate  22.9854
     high-symmetry point:  0.2000 0.4619 0.0000   x coordinate  23.1528
     high-symmetry point:  0.2000 0.4619 0.2423   x coordinate  23.3951
     high-symmetry point:  0.2000 0.4619-0.2423   x coordinate  23.8797
     high-symmetry point:  0.2000 0.4619-0.1212   x coordinate  24.0008
     high-symmetry point:  0.2000 0.5774 0.0000   x coordinate  24.1682
     high-symmetry point:  0.2000 0.5774 0.2423   x coordinate  24.4105
     high-symmetry point:  0.2000 0.5774-0.2423   x coordinate  24.8951
     high-symmetry point:  0.2000 0.5774-0.1212   x coordinate  25.0163
     Message from routine punch_plottable_bands:
     too many lines, exiting
     Bands written to file hexge.bands

 **************************************************************************

                    xk=(   0.00000,   0.00000,   0.00000  )

     point group C_1 (1)    
     there are  1 classes
     the character table:

       E    
A      1.00

     the symmetry operations in each class and the name of the first element:

     E        1
                                                                 

     Band symmetry, C_1 (1)     point group:

     e(  1 -  1) =     -7.35168  eV     1   --> A              
     e(  2 -  2) =     -5.34693  eV     1   --> A              
     e(  3 -  3) =     -2.20561  eV     1   --> A              
     e(  4 -  5) =      3.94774  eV     2   -->   2 A              
     e(  6 -  6) =      5.24658  eV     1   --> A              
     e(  7 -  7) =      5.27722  eV     1   --> A              
     e(  8 -  8) =      5.30457  eV     1   --> A              
     e(  9 - 10) =      5.52251  eV     2   -->   2 A              
     e( 11 - 12) =      7.70702  eV     2   -->   2 A              
     e( 13 - 13) =      8.19144  eV     1   --> A              
     e( 14 - 15) =      9.99842  eV     2   -->   2 A              
     e( 16 - 16) =     11.44946  eV     1   --> A              
     e( 17 - 18) =     12.81250  eV     2   -->   2 A              
     e( 19 - 19) =     13.86861  eV     1   --> A              
     e( 20 - 20) =     14.64114  eV     1   --> A              
     e( 21 - 21) =     14.93759  eV     1   --> A              
     e( 22 - 23) =     14.95255  eV     2   -->   2 A              
     e( 24 - 24) =     16.19415  eV     1   --> A              
     e( 25 - 26) =     19.59518  eV     2   -->   2 A              
     e( 27 - 27) =     20.58641  eV     1   --> A              
     e( 28 - 29) =     20.96491  eV     2   -->   2 A              
     e( 30 - 31) =     22.92095  eV     2   -->   2 A              
     e( 32 - 33) =     23.53016  eV     2   -->   2 A              
     e( 34 - 34) =     25.31594  eV     1   --> A              
     e( 35 - 35) =     26.34261  eV     1   --> A              
     e( 36 - 36) =     26.54183  eV     1   --> A              
     e( 37 - 37) =     26.73865  eV     1   --> A              
     e( 38 - 38) =     30.89289  eV     1   --> A              
     e( 39 - 39) =     30.89299  eV     1   --> A              
     e( 40 - 40) =     31.60074  eV     1   --> A              

 **************************************************************************

 **************************************************************************

                    xk=(   0.00000,   0.00000,   0.12115  )

     Band symmetry, C_1 (1)     point group:

     e(  1 -  1) =     -7.23313  eV     1   --> A              
     e(  2 -  2) =     -5.70041  eV     1   --> A              
     e(  3 -  3) =     -1.60930  eV     1   --> A              
     e(  4 -  4) =      3.35225  eV     1   --> A              
     e(  5 -  6) =      4.05222  eV     2   -->   2 A              
     e(  7 -  8) =      5.28259  eV     2   -->   2 A              
     e(  9 -  9) =      5.40817  eV     1   --> A              
     e( 10 - 10) =      6.63000  eV     1   --> A              
     e( 11 - 12) =      7.95130  eV     2   -->   2 A              
     e( 13 - 13) =      8.38239  eV     1   --> A              
     e( 14 - 15) =      9.72501  eV     2   -->   2 A              
     e( 16 - 16) =     11.80441  eV     1   --> A              
     e( 17 - 18) =     13.18096  eV     2   -->   2 A              
     e( 19 - 19) =     13.67390  eV     1   --> A              
     e( 20 - 20) =     14.32443  eV     1   --> A              
     e( 21 - 21) =     14.52399  eV     1   --> A              
     e( 22 - 23) =     15.46660  eV     2   -->   2 A              
     e( 24 - 24) =     16.94773  eV     1   --> A              
     e( 25 - 26) =     17.80340  eV     2   -->   2 A              
     e( 27 - 28) =     20.74322  eV     2   -->   2 A              
     e( 29 - 29) =     21.41118  eV     1   --> A              
     e( 30 - 31) =     23.06016  eV     2   -->   2 A              
     e( 32 - 32) =     23.31573  eV     1   --> A              
     e( 33 - 33) =     23.54560  eV     1   --> A              
     e( 34 - 35) =     25.95985  eV     2   -->   2 A              
     e( 36 - 36) =     28.30126  eV     1   --> A              
     e( 37 - 37) =     30.42160  eV     1   --> A              
     e( 38 - 38) =     30.57505  eV     1   --> A              
     e( 39 - 40) =     30.95051  eV     2   -->   2 A              

 **************************************************************************

 **************************************************************************

                    xk=(   0.00000,   0.00000,   0.24230  )

     Band symmetry, C_1 (1)     point group:

     e(  1 -  1) =     -6.88467  eV     1   --> A              
     e(  2 -  2) =     -6.33760  eV     1   --> A              
     e(  3 -  3) =     -0.25329  eV     1   --> A              
     e(  4 -  4) =      1.45731  eV     1   --> A              
     e(  5 -  6) =      4.35273  eV     2   -->   2 A              
     e(  7 -  8) =      4.80221  eV     2   -->   2 A              
     e(  9 -  9) =      5.79000  eV     1   --> A              
     e( 10 - 10) =      6.35548  eV     1   --> A              
     e( 11 - 12) =      8.49049  eV     2   -->   2 A              
     e( 13 - 14) =      9.12915  eV     2   -->   2 A              
     e( 15 - 15) =      9.95689  eV     1   --> A              
     e( 16 - 16) =     11.92996  eV     1   --> A              
     e( 17 - 17) =     12.44832  eV     1   --> A              
     e( 18 - 18) =     13.24733  eV     1   --> A              
     e( 19 - 20) =     14.22595  eV     2   -->   2 A              
     e( 21 - 22) =     15.81372  eV     2   -->   2 A              
     e( 23 - 23) =     16.29462  eV     1   --> A              
     e( 24 - 25) =     16.77691  eV     2   -->   2 A              
     e( 26 - 26) =     17.86953  eV     1   --> A              
     e( 27 - 28) =     18.58394  eV     2   -->   2 A              
     e( 29 - 29) =     20.29267  eV     1   --> A              
     e( 30 - 30) =     21.20810  eV     1   --> A              
     e( 31 - 31) =     24.57837  eV     1   --> A              
     e( 32 - 33) =     25.97453  eV     2   -->   2 A              
     e( 34 - 34) =     27.16635  eV     1   --> A              
     e( 35 - 36) =     28.78185  eV     2   -->   2 A              
     e( 37 - 38) =     29.17442  eV     2   -->   2 A              
     e( 39 - 40) =     31.13161  eV     2   -->   2 A              

 **************************************************************************

 **************************************************************************

                    xk=(   0.00000,   0.00000,  -0.24230  )

     Band symmetry, C_1 (1)     point group:

     e(  1 -  1) =     -6.88467  eV     1   --> A              
     e(  2 -  2) =     -6.33760  eV     1   --> A              
     e(  3 -  3) =     -0.25329  eV     1   --> A              
     e(  4 -  4) =      1.45731  eV     1   --> A              
     e(  5 -  6) =      4.35273  eV     2   -->   2 A              
     e(  7 -  8) =      4.80221  eV     2   -->   2 A              
     e(  9 -  9) =      5.79000  eV     1   --> A              
     e( 10 - 10) =      6.35548  eV     1   --> A              
     e( 11 - 12) =      8.49049  eV     2   -->   2 A              
     e( 13 - 14) =      9.12915  eV     2   -->   2 A              
     e( 15 - 15) =      9.95689  eV     1   --> A              
     e( 16 - 16) =     11.92996  eV     1   --> A              
     e( 17 - 17) =     12.44832  eV     1   --> A              
     e( 18 - 18) =     13.24733  eV     1   --> A              
     e( 19 - 20) =     14.22595  eV     2   -->   2 A              
     e( 21 - 22) =     15.81372  eV     2   -->   2 A              
     e( 23 - 23) =     16.29462  eV     1   --> A              
     e( 24 - 25) =     16.77691  eV     2   -->   2 A              
     e( 26 - 26) =     17.86953  eV     1   --> A              
     e( 27 - 28) =     18.58394  eV     2   -->   2 A              
     e( 29 - 29) =     20.29267  eV     1   --> A              
     e( 30 - 30) =     21.20810  eV     1   --> A              
     e( 31 - 31) =     24.57837  eV     1   --> A              
     e( 32 - 33) =     25.97453  eV     2   -->   2 A              
     e( 34 - 34) =     27.16635  eV     1   --> A              
     e( 35 - 36) =     28.78185  eV     2   -->   2 A              
     e( 37 - 38) =     29.17442  eV     2   -->   2 A              
     e( 39 - 40) =     31.13161  eV     2   -->   2 A              

 **************************************************************************

 **************************************************************************

                    xk=(   0.00000,   0.00000,  -0.12115  )

     Band symmetry, C_1 (1)     point group:

     e(  1 -  1) =     -7.23313  eV     1   --> A              
     e(  2 -  2) =     -5.70041  eV     1   --> A              
     e(  3 -  3) =     -1.60930  eV     1   --> A              
     e(  4 -  4) =      3.35225  eV     1   --> A              
     e(  5 -  6) =      4.05222  eV     2   -->   2 A              
     e(  7 -  8) =      5.28259  eV     2   -->   2 A              
     e(  9 -  9) =      5.40817  eV     1   --> A              
     e( 10 - 10) =      6.63000  eV     1   --> A              
     e( 11 - 12) =      7.95130  eV     2   -->   2 A              
     e( 13 - 13) =      8.38239  eV     1   --> A              
     e( 14 - 15) =      9.72501  eV     2   -->   2 A              
     e( 16 - 16) =     11.80441  eV     1   --> A              
     e( 17 - 18) =     13.18096  eV     2   -->   2 A              
     e( 19 - 19) =     13.67390  eV     1   --> A              
     e( 20 - 20) =     14.32443  eV     1   --> A              
     e( 21 - 21) =     14.52399  eV     1   --> A              
     e( 22 - 23) =     15.46660  eV     2   -->   2 A              
     e( 24 - 24) =     16.94773  eV     1   --> A              
     e( 25 - 26) =     17.80340  eV     2   -->   2 A              
     e( 27 - 28) =     20.74322  eV     2   -->   2 A              
     e( 29 - 29) =     21.41118  eV     1   --> A              
     e( 30 - 31) =     23.06016  eV     2   -->   2 A              
     e( 32 - 32) =     23.31573  eV     1   --> A              
     e( 33 - 33) =     23.54560  eV     1   --> A              
     e( 34 - 35) =     25.95985  eV     2   -->   2 A              
     e( 36 - 36) =     28.30126  eV     1   --> A              
     e( 37 - 37) =     30.42162  eV     1   --> A              
     e( 38 - 38) =     30.57505  eV     1   --> A              
     e( 39 - 40) =     30.95051  eV     2   -->   2 A              

 **************************************************************************

 **************************************************************************

                    xk=(   0.00000,   0.11547,   0.00000  )

     Band symmetry, C_1 (1)     point group:

     e(  1 -  1) =     -7.24481  eV     1   --> A              
     e(  2 -  2) =     -5.23512  eV     1   --> A              
     e(  3 -  3) =     -2.19387  eV     1   --> A              
     e(  4 -  4) =      2.85008  eV     1   --> A              
     e(  5 -  5) =      3.71581  eV     1   --> A              
     e(  6 -  6) =      3.79942  eV     1   --> A              
     e(  7 -  7) =      5.04740  eV     1   --> A              
     e(  8 -  8) =      5.30051  eV     1   --> A              
     e(  9 -  9) =      6.21780  eV     1   --> A              
     e( 10 - 10) =      6.56293  eV     1   --> A              
     e( 11 - 11) =      7.72858  eV     1   --> A              
     e( 12 - 12) =      8.03374  eV     1   --> A              
     e( 13 - 13) =      8.54178  eV     1   --> A              
     e( 14 - 14) =     10.00796  eV     1   --> A              
     e( 15 - 15) =     10.43347  eV     1   --> A              
     e( 16 - 16) =     11.85469  eV     1   --> A              
     e( 17 - 17) =     12.12962  eV     1   --> A              
     e( 18 - 18) =     12.61277  eV     1   --> A              
     e( 19 - 19) =     13.61680  eV     1   --> A              
     e( 20 - 20) =     14.87559  eV     1   --> A              
     e( 21 - 21) =     14.99228  eV     1   --> A              
     e( 22 - 22) =     15.52072  eV     1   --> A              
     e( 23 - 23) =     16.10482  eV     1   --> A              
     e( 24 - 24) =     16.71719  eV     1   --> A              
     e( 25 - 25) =     19.28293  eV     1   --> A              
     e( 26 - 26) =     19.33911  eV     1   --> A              
     e( 27 - 27) =     19.79085  eV     1   --> A              
     e( 28 - 28) =     20.62996  eV     1   --> A              
     e( 29 - 29) =     21.94878  eV     1   --> A              
     e( 30 - 30) =     22.62532  eV     1   --> A              
     e( 31 - 31) =     23.41675  eV     1   --> A              
     e( 32 - 32) =     23.56902  eV     1   --> A              
     e( 33 - 33) =     24.09440  eV     1   --> A              
     e( 34 - 34) =     26.29600  eV     1   --> A              
     e( 35 - 35) =     26.65348  eV     1   --> A              
     e( 36 - 36) =     26.78361  eV     1   --> A              
     e( 37 - 37) =     26.97704  eV     1   --> A              
     e( 38 - 38) =     28.33622  eV     1   --> A              
     e( 39 - 39) =     28.57865  eV     1   --> A              
     e( 40 - 40) =     29.95800  eV     1   --> A              

 **************************************************************************

 **************************************************************************

                    xk=(   0.00000,   0.11547,   0.12115  )

     Band symmetry, C_1 (1)     point group:

     e(  1 -  1) =     -7.12637  eV     1   --> A              
     e(  2 -  2) =     -5.59191  eV     1   --> A              
     e(  3 -  3) =     -1.60670  eV     1   --> A              
     e(  4 -  4) =      2.89536  eV     1   --> A              
     e(  5 -  5) =      2.98442  eV     1   --> A              
     e(  6 -  6) =      3.82185  eV     1   --> A              
     e(  7 -  7) =      4.68827  eV     1   --> A              
     e(  8 -  8) =      5.06465  eV     1   --> A              
     e(  9 -  9) =      6.30798  eV     1   --> A              
     e( 10 - 10) =      7.10411  eV     1   --> A              
     e( 11 - 11) =      7.97301  eV     1   --> A              
     e( 12 - 12) =      8.29124  eV     1   --> A              
     e( 13 - 13) =      8.62930  eV     1   --> A              
     e( 14 - 14) =      9.68232  eV     1   --> A              
     e( 15 - 15) =     10.15312  eV     1   --> A              
     e( 16 - 16) =     12.18563  eV     1   --> A              
     e( 17 - 17) =     12.71240  eV     1   --> A              
     e( 18 - 18) =     12.97094  eV     1   --> A              
     e( 19 - 19) =     13.45317  eV     1   --> A              
     e( 20 - 20) =     14.25638  eV     1   --> A              
     e( 21 - 21) =     15.11694  eV     1   --> A              
     e( 22 - 22) =     15.81074  eV     1   --> A              
     e( 23 - 23) =     16.02678  eV     1   --> A              
     e( 24 - 24) =     17.53134  eV     1   --> A              
     e( 25 - 25) =     17.88631  eV     1   --> A              
     e( 26 - 26) =     17.96170  eV     1   --> A              
     e( 27 - 27) =     20.46617  eV     1   --> A              
     e( 28 - 28) =     20.85886  eV     1   --> A              
     e( 29 - 29) =     21.26773  eV     1   --> A              
     e( 30 - 30) =     22.75731  eV     1   --> A              
     e( 31 - 31) =     23.17061  eV     1   --> A              
     e( 32 - 32) =     23.97311  eV     1   --> A              
     e( 33 - 33) =     24.25072  eV     1   --> A              
     e( 34 - 34) =     25.79809  eV     1   --> A              
     e( 35 - 35) =     26.45048  eV     1   --> A              
     e( 36 - 36) =     28.26843  eV     1   --> A              
     e( 37 - 37) =     28.45524  eV     1   --> A              
     e( 38 - 38) =     28.94806  eV     1   --> A              
     e( 39 - 39) =     29.73214  eV     1   --> A              
     e( 40 - 40) =     29.81890  eV     1   --> A              

 **************************************************************************

 **************************************************************************

                    xk=(   0.00000,   0.11547,   0.24230  )

     Band symmetry, C_1 (1)     point group:

     e(  1 -  1) =     -6.77820  eV     1   --> A              
     e(  2 -  2) =     -6.23106  eV     1   --> A              
     e(  3 -  3) =     -0.29419  eV     1   --> A              
     e(  4 -  4) =      1.30328  eV     1   --> A              
     e(  5 -  5) =      3.36227  eV     1   --> A              
     e(  6 -  6) =      3.96985  eV     1   --> A              
     e(  7 -  7) =      4.12689  eV     1   --> A              
     e(  8 -  8) =      4.58239  eV     1   --> A              
     e(  9 -  9) =      6.67099  eV     1   --> A              
     e( 10 - 10) =      7.16860  eV     1   --> A              
     e( 11 - 11) =      8.25523  eV     1   --> A              
     e( 12 - 12) =      8.86635  eV     1   --> A              
     e( 13 - 13) =      8.99837  eV     1   --> A              
     e( 14 - 14) =      9.53804  eV     1   --> A              
     e( 15 - 15) =      9.94397  eV     1   --> A              
     e( 16 - 16) =     11.72539  eV     1   --> A              
     e( 17 - 17) =     12.85533  eV     1   --> A              
     e( 18 - 18) =     13.56462  eV     1   --> A              
     e( 19 - 19) =     13.98935  eV     1   --> A              
     e( 20 - 20) =     14.17829  eV     1   --> A              
     e( 21 - 21) =     15.55214  eV     1   --> A              
     e( 22 - 22) =     15.89845  eV     1   --> A              
     e( 23 - 23) =     16.25209  eV     1   --> A              
     e( 24 - 24) =     16.94233  eV     1   --> A              
     e( 25 - 25) =     17.32824  eV     1   --> A              
     e( 26 - 26) =     18.41282  eV     1   --> A              
     e( 27 - 27) =     18.82106  eV     1   --> A              
     e( 28 - 28) =     19.12489  eV     1   --> A              
     e( 29 - 29) =     20.84999  eV     1   --> A              
     e( 30 - 30) =     22.12241  eV     1   --> A              
     e( 31 - 31) =     23.62954  eV     1   --> A              
     e( 32 - 32) =     25.64536  eV     1   --> A              
     e( 33 - 33) =     26.14243  eV     1   --> A              
     e( 34 - 34) =     26.57291  eV     1   --> A              
     e( 35 - 35) =     28.24919  eV     1   --> A              
     e( 36 - 36) =     28.27155  eV     1   --> A              
     e( 37 - 37) =     28.89816  eV     1   --> A              
     e( 38 - 38) =     29.16683  eV     1   --> A              
     e( 39 - 39) =     29.34981  eV     1   --> A              
     e( 40 - 40) =     29.83066  eV     1   --> A              

 **************************************************************************

 **************************************************************************

                    xk=(   0.00000,   0.11547,  -0.24230  )

     Band symmetry, C_1 (1)     point group:

     e(  1 -  1) =     -6.77820  eV     1   --> A              
     e(  2 -  2) =     -6.23106  eV     1   --> A              
     e(  3 -  3) =     -0.29419  eV     1   --> A              
     e(  4 -  4) =      1.30328  eV     1   --> A              
     e(  5 -  5) =      3.36227  eV     1   --> A              
     e(  6 -  6) =      3.96985  eV     1   --> A              
     e(  7 -  7) =      4.12689  eV     1   --> A              
     e(  8 -  8) =      4.58239  eV     1   --> A              
     e(  9 -  9) =      6.67099  eV     1   --> A              
     e( 10 - 10) =      7.16860  eV     1   --> A              
     e( 11 - 11) =      8.25523  eV     1   --> A              
     e( 12 - 12) =      8.86635  eV     1   --> A              
     e( 13 - 13) =      8.99837  eV     1   --> A              
     e( 14 - 14) =      9.53804  eV     1   --> A              
     e( 15 - 15) =      9.94397  eV     1   --> A              
     e( 16 - 16) =     11.72539  eV     1   --> A              
     e( 17 - 17) =     12.85533  eV     1   --> A              
     e( 18 - 18) =     13.56462  eV     1   --> A              
     e( 19 - 19) =     13.98935  eV     1   --> A              
     e( 20 - 20) =     14.17829  eV     1   --> A              
     e( 21 - 21) =     15.55214  eV     1   --> A              
     e( 22 - 22) =     15.89845  eV     1   --> A              
     e( 23 - 23) =     16.25209  eV     1   --> A              
     e( 24 - 24) =     16.94233  eV     1   --> A              
     e( 25 - 25) =     17.32824  eV     1   --> A              
     e( 26 - 26) =     18.41282  eV     1   --> A              
     e( 27 - 27) =     18.82106  eV     1   --> A              
     e( 28 - 28) =     19.12489  eV     1   --> A              
     e( 29 - 29) =     20.84999  eV     1   --> A              
     e( 30 - 30) =     22.12241  eV     1   --> A              
     e( 31 - 31) =     23.62954  eV     1   --> A              
     e( 32 - 32) =     25.64536  eV     1   --> A              
     e( 33 - 33) =     26.14243  eV     1   --> A              
     e( 34 - 34) =     26.57291  eV     1   --> A              
     e( 35 - 35) =     28.24919  eV     1   --> A              
     e( 36 - 36) =     28.27155  eV     1   --> A              
     e( 37 - 37) =     28.89816  eV     1   --> A              
     e( 38 - 38) =     29.16685  eV     1   --> A              
     e( 39 - 39) =     29.34981  eV     1   --> A              
     e( 40 - 40) =     29.83286  eV     1   --> A              

 **************************************************************************

 **************************************************************************

                    xk=(   0.00000,   0.11547,  -0.12115  )

     Band symmetry, C_1 (1)     point group:

     e(  1 -  1) =     -7.12637  eV     1   --> A              
     e(  2 -  2) =     -5.59191  eV     1   --> A              
     e(  3 -  3) =     -1.60670  eV     1   --> A              
     e(  4 -  4) =      2.89536  eV     1   --> A              
     e(  5 -  5) =      2.98442  eV     1   --> A              
     e(  6 -  6) =      3.82185  eV     1   --> A              
     e(  7 -  7) =      4.68827  eV     1   --> A              
     e(  8 -  8) =      5.06465  eV     1   --> A              
     e(  9 -  9) =      6.30798  eV     1   --> A              
     e( 10 - 10) =      7.10411  eV     1   --> A              
     e( 11 - 11) =      7.97301  eV     1   --> A              
     e( 12 - 12) =      8.29124  eV     1   --> A              
     e( 13 - 13) =      8.62930  eV     1   --> A              
     e( 14 - 14) =      9.68232  eV     1   --> A              
     e( 15 - 15) =     10.15312  eV     1   --> A              
     e( 16 - 16) =     12.18563  eV     1   --> A              
     e( 17 - 17) =     12.71240  eV     1   --> A              
     e( 18 - 18) =     12.97094  eV     1   --> A              
     e( 19 - 19) =     13.45317  eV     1   --> A              
     e( 20 - 20) =     14.25638  eV     1   --> A              
     e( 21 - 21) =     15.11694  eV     1   --> A              
     e( 22 - 22) =     15.81074  eV     1   --> A              
     e( 23 - 23) =     16.02678  eV     1   --> A              
     e( 24 - 24) =     17.53134  eV     1   --> A              
     e( 25 - 25) =     17.88631  eV     1   --> A              
     e( 26 - 26) =     17.96170  eV     1   --> A              
     e( 27 - 27) =     20.46617  eV     1   --> A              
     e( 28 - 28) =     20.85886  eV     1   --> A              
     e( 29 - 29) =     21.26773  eV     1   --> A              
     e( 30 - 30) =     22.75731  eV     1   --> A              
     e( 31 - 31) =     23.17061  eV     1   --> A              
     e( 32 - 32) =     23.97311  eV     1   --> A              
     e( 33 - 33) =     24.25072  eV     1   --> A              
     e( 34 - 34) =     25.79809  eV     1   --> A              
     e( 35 - 35) =     26.45048  eV     1   --> A              
     e( 36 - 36) =     28.26843  eV     1   --> A              
     e( 37 - 37) =     28.45524  eV     1   --> A              
     e( 38 - 38) =     28.94806  eV     1   --> A              
     e( 39 - 39) =     29.73213  eV     1   --> A              
     e( 40 - 40) =     29.81890  eV     1   --> A              

 **************************************************************************

 **************************************************************************

                    xk=(   0.00000,   0.23094,   0.00000  )

     Band symmetry, C_1 (1)     point group:

     e(  1 -  1) =     -6.92899  eV     1   --> A              
     e(  2 -  2) =     -4.90339  eV     1   --> A              
     e(  3 -  3) =     -2.24139  eV     1   --> A              
     e(  4 -  4) =      1.54869  eV     1   --> A              
     e(  5 -  5) =      2.13285  eV     1   --> A              
     e(  6 -  6) =      3.23765  eV     1   --> A              
     e(  7 -  7) =      4.47599  eV     1   --> A              
     e(  8 -  8) =      4.83432  eV     1   --> A              
     e(  9 -  9) =      6.46721  eV     1   --> A              
     e( 10 - 10) =      7.06853  eV     1   --> A              
     e( 11 - 11) =      8.66799  eV     1   --> A              
     e( 12 - 12) =      8.70958  eV     1   --> A              
     e( 13 - 13) =      8.71635  eV     1   --> A              
     e( 14 - 14) =     10.97301  eV     1   --> A              
     e( 15 - 15) =     10.98736  eV     1   --> A              
     e( 16 - 16) =     11.52018  eV     1   --> A              
     e( 17 - 17) =     12.57847  eV     1   --> A              
     e( 18 - 18) =     12.60293  eV     1   --> A              
     e( 19 - 19) =     13.90749  eV     1   --> A              
     e( 20 - 20) =     14.17360  eV     1   --> A              
     e( 21 - 21) =     16.37246  eV     1   --> A              
     e( 22 - 22) =     16.75954  eV     1   --> A              
     e( 23 - 23) =     17.30623  eV     1   --> A              
     e( 24 - 24) =     17.49309  eV     1   --> A              
     e( 25 - 25) =     18.87216  eV     1   --> A              
     e( 26 - 26) =     19.52016  eV     1   --> A              
     e( 27 - 27) =     19.80665  eV     1   --> A              
     e( 28 - 28) =     20.08999  eV     1   --> A              
     e( 29 - 29) =     21.82497  eV     1   --> A              
     e( 30 - 30) =     22.84665  eV     1   --> A              
     e( 31 - 31) =     24.58339  eV     1   --> A              
     e( 32 - 32) =     24.80357  eV     1   --> A              
     e( 33 - 33) =     24.82892  eV     1   --> A              
     e( 34 - 34) =     25.04510  eV     1   --> A              
     e( 35 - 35) =     25.80967  eV     1   --> A              
     e( 36 - 36) =     26.25372  eV     1   --> A              
     e( 37 - 37) =     26.94658  eV     1   --> A              
     e( 38 - 38) =     27.03740  eV     1   --> A              
     e( 39 - 39) =     28.33470  eV     1   --> A              
     e( 40 - 40) =     28.81048  eV     1   --> A              

 **************************************************************************

 **************************************************************************

                    xk=(   0.00000,   0.23094,   0.12115  )

     Band symmetry, C_1 (1)     point group:

     e(  1 -  1) =     -6.81110  eV     1   --> A              
     e(  2 -  2) =     -5.27227  eV     1   --> A              
     e(  3 -  3) =     -1.69782  eV     1   --> A              
     e(  4 -  4) =      1.63438  eV     1   --> A              
     e(  5 -  5) =      1.74422  eV     1   --> A              
     e(  6 -  6) =      3.34586  eV     1   --> A              
     e(  7 -  7) =      4.28937  eV     1   --> A              
     e(  8 -  8) =      4.60346  eV     1   --> A              
     e(  9 -  9) =      6.20151  eV     1   --> A              
     e( 10 - 10) =      7.35709  eV     1   --> A              
     e( 11 - 11) =      8.33493  eV     1   --> A              
     e( 12 - 12) =      8.98565  eV     1   --> A              
     e( 13 - 13) =      9.29428  eV     1   --> A              
     e( 14 - 14) =     10.51727  eV     1   --> A              
     e( 15 - 15) =     11.20847  eV     1   --> A              
     e( 16 - 16) =     11.61181  eV     1   --> A              
     e( 17 - 17) =     12.68853  eV     1   --> A              
     e( 18 - 18) =     12.87750  eV     1   --> A              
     e( 19 - 19) =     13.61191  eV     1   --> A              
     e( 20 - 20) =     14.26318  eV     1   --> A              
     e( 21 - 21) =     16.40955  eV     1   --> A              
     e( 22 - 22) =     16.99327  eV     1   --> A              
     e( 23 - 23) =     17.36635  eV     1   --> A              
     e( 24 - 24) =     17.37254  eV     1   --> A              
     e( 25 - 25) =     17.70482  eV     1   --> A              
     e( 26 - 26) =     19.10121  eV     1   --> A              
     e( 27 - 27) =     20.50448  eV     1   --> A              
     e( 28 - 28) =     20.99936  eV     1   --> A              
     e( 29 - 29) =     22.12103  eV     1   --> A              
     e( 30 - 30) =     22.56396  eV     1   --> A              
     e( 31 - 31) =     23.58314  eV     1   --> A              
     e( 32 - 32) =     23.78659  eV     1   --> A              
     e( 33 - 33) =     24.95828  eV     1   --> A              
     e( 34 - 34) =     25.24308  eV     1   --> A              
     e( 35 - 35) =     26.38090  eV     1   --> A              
     e( 36 - 36) =     26.60620  eV     1   --> A              
     e( 37 - 37) =     26.72015  eV     1   --> A              
     e( 38 - 38) =     27.79119  eV     1   --> A              
     e( 39 - 39) =     27.91366  eV     1   --> A              
     e( 40 - 40) =     28.54614  eV     1   --> A              

 **************************************************************************

 **************************************************************************

                    xk=(   0.00000,   0.23094,   0.24230  )

     Band symmetry, C_1 (1)     point group:

     e(  1 -  1) =     -6.46424  eV     1   --> A              
     e(  2 -  2) =     -5.91758  eV     1   --> A              
     e(  3 -  3) =     -0.57587  eV     1   --> A              
     e(  4 -  4) =      0.62083  eV     1   --> A              
     e(  5 -  5) =      2.31188  eV     1   --> A              
     e(  6 -  6) =      3.28096  eV     1   --> A              
     e(  7 -  7) =      3.65697  eV     1   --> A              
     e(  8 -  8) =      4.11986  eV     1   --> A              
     e(  9 -  9) =      6.64741  eV     1   --> A              
     e( 10 - 10) =      7.29573  eV     1   --> A              
     e( 11 - 11) =      8.53950  eV     1   --> A              
     e( 12 - 12) =      9.62152  eV     1   --> A              
     e( 13 - 13) =      9.70464  eV     1   --> A              
     e( 14 - 14) =     10.08873  eV     1   --> A              
     e( 15 - 15) =     10.51126  eV     1   --> A              
     e( 16 - 16) =     11.13305  eV     1   --> A              
     e( 17 - 17) =     13.08972  eV     1   --> A              
     e( 18 - 18) =     13.75346  eV     1   --> A              
     e( 19 - 19) =     14.31229  eV     1   --> A              
     e( 20 - 20) =     15.05607  eV     1   --> A              
     e( 21 - 21) =     15.18092  eV     1   --> A              
     e( 22 - 22) =     15.88889  eV     1   --> A              
     e( 23 - 23) =     16.63401  eV     1   --> A              
     e( 24 - 24) =     17.88545  eV     1   --> A              
     e( 25 - 25) =     18.58420  eV     1   --> A              
     e( 26 - 26) =     18.95590  eV     1   --> A              
     e( 27 - 27) =     20.24136  eV     1   --> A              
     e( 28 - 28) =     20.36955  eV     1   --> A              
     e( 29 - 29) =     22.22500  eV     1   --> A              
     e( 30 - 30) =     22.37757  eV     1   --> A              
     e( 31 - 31) =     23.75933  eV     1   --> A              
     e( 32 - 32) =     24.79918  eV     1   --> A              
     e( 33 - 33) =     24.87328  eV     1   --> A              
     e( 34 - 34) =     25.54341  eV     1   --> A              
     e( 35 - 35) =     25.92995  eV     1   --> A              
     e( 36 - 36) =     26.20260  eV     1   --> A              
     e( 37 - 37) =     26.31622  eV     1   --> A              
     e( 38 - 38) =     27.58836  eV     1   --> A              
     e( 39 - 39) =     28.48084  eV     1   --> A              
     e( 40 - 40) =     29.64600  eV     1   --> A              

 **************************************************************************

 **************************************************************************

                    xk=(   0.00000,   0.23094,  -0.24230  )

     Band symmetry, C_1 (1)     point group:

     e(  1 -  1) =     -6.46424  eV     1   --> A              
     e(  2 -  2) =     -5.91758  eV     1   --> A              
     e(  3 -  3) =     -0.57587  eV     1   --> A              
     e(  4 -  4) =      0.62083  eV     1   --> A              
     e(  5 -  5) =      2.31188  eV     1   --> A              
     e(  6 -  6) =      3.28096  eV     1   --> A              
     e(  7 -  7) =      3.65697  eV     1   --> A              
     e(  8 -  8) =      4.11986  eV     1   --> A              
     e(  9 -  9) =      6.64741  eV     1   --> A              
     e( 10 - 10) =      7.29573  eV     1   --> A              
     e( 11 - 11) =      8.53950  eV     1   --> A              
     e( 12 - 12) =      9.62152  eV     1   --> A              
     e( 13 - 13) =      9.70464  eV     1   --> A              
     e( 14 - 14) =     10.08873  eV     1   --> A              
     e( 15 - 15) =     10.51126  eV     1   --> A              
     e( 16 - 16) =     11.13305  eV     1   --> A              
     e( 17 - 17) =     13.08972  eV     1   --> A              
     e( 18 - 18) =     13.75346  eV     1   --> A              
     e( 19 - 19) =     14.31229  eV     1   --> A              
     e( 20 - 20) =     15.05607  eV     1   --> A              
     e( 21 - 21) =     15.18092  eV     1   --> A              
     e( 22 - 22) =     15.88889  eV     1   --> A              
     e( 23 - 23) =     16.63401  eV     1   --> A              
     e( 24 - 24) =     17.88545  eV     1   --> A              
     e( 25 - 25) =     18.58420  eV     1   --> A              
     e( 26 - 26) =     18.95590  eV     1   --> A              
     e( 27 - 27) =     20.24136  eV     1   --> A              
     e( 28 - 28) =     20.36955  eV     1   --> A              
     e( 29 - 29) =     22.22500  eV     1   --> A              
     e( 30 - 30) =     22.37757  eV     1   --> A              
     e( 31 - 31) =     23.75933  eV     1   --> A              
     e( 32 - 32) =     24.79918  eV     1   --> A              
     e( 33 - 33) =     24.87328  eV     1   --> A              
     e( 34 - 34) =     25.54341  eV     1   --> A              
     e( 35 - 35) =     25.92995  eV     1   --> A              
     e( 36 - 36) =     26.20260  eV     1   --> A              
     e( 37 - 37) =     26.31622  eV     1   --> A              
     e( 38 - 38) =     27.58836  eV     1   --> A              
     e( 39 - 39) =     28.48084  eV     1   --> A              
     e( 40 - 40) =     29.64592  eV     1   --> A              

 **************************************************************************

 **************************************************************************

                    xk=(   0.00000,   0.23094,  -0.12115  )

     Band symmetry, C_1 (1)     point group:

     e(  1 -  1) =     -6.81110  eV     1   --> A              
     e(  2 -  2) =     -5.27227  eV     1   --> A              
     e(  3 -  3) =     -1.69782  eV     1   --> A              
     e(  4 -  4) =      1.63438  eV     1   --> A              
     e(  5 -  5) =      1.74422  eV     1   --> A              
     e(  6 -  6) =      3.34586  eV     1   --> A              
     e(  7 -  7) =      4.28937  eV     1   --> A              
     e(  8 -  8) =      4.60346  eV     1   --> A              
     e(  9 -  9) =      6.20151  eV     1   --> A              
     e( 10 - 10) =      7.35709  eV     1   --> A              
     e( 11 - 11) =      8.33493  eV     1   --> A              
     e( 12 - 12) =      8.98565  eV     1   --> A              
     e( 13 - 13) =      9.29428  eV     1   --> A              
     e( 14 - 14) =     10.51727  eV     1   --> A              
     e( 15 - 15) =     11.20848  eV     1   --> A              
     e( 16 - 16) =     11.61181  eV     1   --> A              
     e( 17 - 17) =     12.68853  eV     1   --> A              
     e( 18 - 18) =     12.87750  eV     1   --> A              
     e( 19 - 19) =     13.61191  eV     1   --> A              
     e( 20 - 20) =     14.26318  eV     1   --> A              
     e( 21 - 21) =     16.40955  eV     1   --> A              
     e( 22 - 22) =     16.99327  eV     1   --> A              
     e( 23 - 23) =     17.36635  eV     1   --> A              
     e( 24 - 24) =     17.37254  eV     1   --> A              
     e( 25 - 25) =     17.70482  eV     1   --> A              
     e( 26 - 26) =     19.10121  eV     1   --> A              
     e( 27 - 27) =     20.50448  eV     1   --> A              
     e( 28 - 28) =     20.99936  eV     1   --> A              
     e( 29 - 29) =     22.12103  eV     1   --> A              
     e( 30 - 30) =     22.56396  eV     1   --> A              
     e( 31 - 31) =     23.58314  eV     1   --> A              
     e( 32 - 32) =     23.78659  eV     1   --> A              
     e( 33 - 33) =     24.95828  eV     1   --> A              
     e( 34 - 34) =     25.24308  eV     1   --> A              
     e( 35 - 35) =     26.38090  eV     1   --> A              
     e( 36 - 36) =     26.60620  eV     1   --> A              
     e( 37 - 37) =     26.72015  eV     1   --> A              
     e( 38 - 38) =     27.79119  eV     1   --> A              
     e( 39 - 39) =     27.91366  eV     1   --> A              
     e( 40 - 40) =     28.54613  eV     1   --> A              

 **************************************************************************

 **************************************************************************

                    xk=(   0.00000,   0.34641,   0.00000  )

     Band symmetry, C_1 (1)     point group:

     e(  1 -  1) =     -6.42429  eV     1   --> A              
     e(  2 -  2) =     -4.36836  eV     1   --> A              
     e(  3 -  3) =     -2.59349  eV     1   --> A              
     e(  4 -  4) =      0.58404  eV     1   --> A              
     e(  5 -  5) =      0.81125  eV     1   --> A              
     e(  6 -  6) =      2.78660  eV     1   --> A              
     e(  7 -  7) =      3.70157  eV     1   --> A              
     e(  8 -  8) =      4.38844  eV     1   --> A              
     e(  9 -  9) =      6.22772  eV     1   --> A              
     e( 10 - 10) =      7.19064  eV     1   --> A              
     e( 11 - 11) =      8.81083  eV     1   --> A              
     e( 12 - 12) =      9.06209  eV     1   --> A              
     e( 13 - 13) =      9.23225  eV     1   --> A              
     e( 14 - 14) =     11.59479  eV     1   --> A              
     e( 15 - 15) =     12.32313  eV     1   --> A              
     e( 16 - 16) =     12.40635  eV     1   --> A              
     e( 17 - 17) =     12.91396  eV     1   --> A              
     e( 18 - 18) =     13.31338  eV     1   --> A              
     e( 19 - 19) =     13.44822  eV     1   --> A              
     e( 20 - 20) =     15.10446  eV     1   --> A              
     e( 21 - 21) =     16.18135  eV     1   --> A              
     e( 22 - 22) =     18.10869  eV     1   --> A              
     e( 23 - 23) =     18.54863  eV     1   --> A              
     e( 24 - 24) =     18.60920  eV     1   --> A              
     e( 25 - 25) =     19.07980  eV     1   --> A              
     e( 26 - 26) =     19.89961  eV     1   --> A              
     e( 27 - 27) =     20.14307  eV     1   --> A              
     e( 28 - 28) =     20.60794  eV     1   --> A              
     e( 29 - 29) =     22.20641  eV     1   --> A              
     e( 30 - 30) =     22.37987  eV     1   --> A              
     e( 31 - 31) =     22.84673  eV     1   --> A              
     e( 32 - 32) =     23.38139  eV     1   --> A              
     e( 33 - 33) =     23.98490  eV     1   --> A              
     e( 34 - 34) =     24.90952  eV     1   --> A              
     e( 35 - 35) =     26.05191  eV     1   --> A              
     e( 36 - 36) =     26.32785  eV     1   --> A              
     e( 37 - 37) =     27.13612  eV     1   --> A              
     e( 38 - 38) =     27.93804  eV     1   --> A              
     e( 39 - 39) =     28.39096  eV     1   --> A              
     e( 40 - 40) =     28.53164  eV     1   --> A              

 **************************************************************************

 **************************************************************************

                    xk=(   0.00000,   0.34641,   0.12115  )

     Band symmetry, C_1 (1)     point group:

     e(  1 -  1) =     -6.30802  eV     1   --> A              
     e(  2 -  2) =     -4.76912  eV     1   --> A              
     e(  3 -  3) =     -2.14308  eV     1   --> A              
     e(  4 -  4) =      0.21718  eV     1   --> A              
     e(  5 -  5) =      1.11658  eV     1   --> A              
     e(  6 -  6) =      2.89606  eV     1   --> A              
     e(  7 -  7) =      3.86338  eV     1   --> A              
     e(  8 -  8) =      4.16042  eV     1   --> A              
     e(  9 -  9) =      5.92610  eV     1   --> A              
     e( 10 - 10) =      6.96275  eV     1   --> A              
     e( 11 - 11) =      8.21293  eV     1   --> A              
     e( 12 - 12) =      9.46770  eV     1   --> A              
     e( 13 - 13) =     10.23015  eV     1   --> A              
     e( 14 - 14) =     11.00196  eV     1   --> A              
     e( 15 - 15) =     12.01613  eV     1   --> A              
     e( 16 - 16) =     12.50606  eV     1   --> A              
     e( 17 - 17) =     12.87457  eV     1   --> A              
     e( 18 - 18) =     13.52787  eV     1   --> A              
     e( 19 - 19) =     13.58660  eV     1   --> A              
     e( 20 - 20) =     15.67742  eV     1   --> A              
     e( 21 - 21) =     16.81707  eV     1   --> A              
     e( 22 - 22) =     16.82315  eV     1   --> A              
     e( 23 - 23) =     17.71557  eV     1   --> A              
     e( 24 - 24) =     18.85716  eV     1   --> A              
     e( 25 - 25) =     19.38899  eV     1   --> A              
     e( 26 - 26) =     19.57119  eV     1   --> A              
     e( 27 - 27) =     21.62015  eV     1   --> A              
     e( 28 - 28) =     21.64466  eV     1   --> A              
     e( 29 - 29) =     22.30213  eV     1   --> A              
     e( 30 - 30) =     22.35215  eV     1   --> A              
     e( 31 - 31) =     22.51108  eV     1   --> A              
     e( 32 - 32) =     23.35641  eV     1   --> A              
     e( 33 - 33) =     23.70290  eV     1   --> A              
     e( 34 - 34) =     24.00961  eV     1   --> A              
     e( 35 - 35) =     24.41667  eV     1   --> A              
     e( 36 - 36) =     26.19110  eV     1   --> A              
     e( 37 - 37) =     27.19333  eV     1   --> A              
     e( 38 - 38) =     28.21186  eV     1   --> A              
     e( 39 - 39) =     28.76834  eV     1   --> A              
     e( 40 - 40) =     28.94656  eV     1   --> A              

 **************************************************************************

 **************************************************************************

                    xk=(   0.00000,   0.34641,   0.24230  )

     Band symmetry, C_1 (1)     point group:

     e(  1 -  1) =     -5.96569  eV     1   --> A              
     e(  2 -  2) =     -5.42373  eV     1   --> A              
     e(  3 -  3) =     -1.34376  eV     1   --> A              
     e(  4 -  4) =     -0.52771  eV     1   --> A              
     e(  5 -  5) =      1.99140  eV     1   --> A              
     e(  6 -  6) =      3.20406  eV     1   --> A              
     e(  7 -  7) =      3.21051  eV     1   --> A              
     e(  8 -  8) =      3.67698  eV     1   --> A              
     e(  9 -  9) =      6.08371  eV     1   --> A              
     e( 10 - 10) =      6.79652  eV     1   --> A              
     e( 11 - 11) =      8.06758  eV     1   --> A              
     e( 12 - 12) =      9.22748  eV     1   --> A              
     e( 13 - 13) =     10.43941  eV     1   --> A              
     e( 14 - 14) =     11.50228  eV     1   --> A              
     e( 15 - 15) =     11.56730  eV     1   --> A              
     e( 16 - 16) =     12.21699  eV     1   --> A              
     e( 17 - 17) =     12.93375  eV     1   --> A              
     e( 18 - 18) =     14.14175  eV     1   --> A              
     e( 19 - 19) =     14.56176  eV     1   --> A              
     e( 20 - 20) =     15.23292  eV     1   --> A              
     e( 21 - 21) =     15.69597  eV     1   --> A              
     e( 22 - 22) =     17.10674  eV     1   --> A              
     e( 23 - 23) =     18.11804  eV     1   --> A              
     e( 24 - 24) =     18.63172  eV     1   --> A              
     e( 25 - 25) =     20.14675  eV     1   --> A              
     e( 26 - 26) =     20.42701  eV     1   --> A              
     e( 27 - 27) =     20.97711  eV     1   --> A              
     e( 28 - 28) =     21.74586  eV     1   --> A              
     e( 29 - 29) =     21.80703  eV     1   --> A              
     e( 30 - 30) =     22.42395  eV     1   --> A              
     e( 31 - 31) =     22.73994  eV     1   --> A              
     e( 32 - 32) =     23.06747  eV     1   --> A              
     e( 33 - 33) =     23.16520  eV     1   --> A              
     e( 34 - 34) =     24.16215  eV     1   --> A              
     e( 35 - 35) =     24.96670  eV     1   --> A              
     e( 36 - 36) =     25.70314  eV     1   --> A              
     e( 37 - 37) =     26.67952  eV     1   --> A              
     e( 38 - 38) =     27.02137  eV     1   --> A              
     e( 39 - 39) =     27.93006  eV     1   --> A              
     e( 40 - 40) =     29.52749  eV     1   --> A              

 **************************************************************************

 **************************************************************************

                    xk=(   0.00000,   0.34641,  -0.24230  )

     Band symmetry, C_1 (1)     point group:

     e(  1 -  1) =     -5.96569  eV     1   --> A              
     e(  2 -  2) =     -5.42373  eV     1   --> A              
     e(  3 -  3) =     -1.34376  eV     1   --> A              
     e(  4 -  4) =     -0.52771  eV     1   --> A              
     e(  5 -  5) =      1.99140  eV     1   --> A              
     e(  6 -  6) =      3.20406  eV     1   --> A              
     e(  7 -  7) =      3.21051  eV     1   --> A              
     e(  8 -  8) =      3.67698  eV     1   --> A              
     e(  9 -  9) =      6.08371  eV     1   --> A              
     e( 10 - 10) =      6.79652  eV     1   --> A              
     e( 11 - 11) =      8.06758  eV     1   --> A              
     e( 12 - 12) =      9.22748  eV     1   --> A              
     e( 13 - 13) =     10.43941  eV     1   --> A              
     e( 14 - 14) =     11.50228  eV     1   --> A              
     e( 15 - 15) =     11.56730  eV     1   --> A              
     e( 16 - 16) =     12.21699  eV     1   --> A              
     e( 17 - 17) =     12.93375  eV     1   --> A              
     e( 18 - 18) =     14.14175  eV     1   --> A              
     e( 19 - 19) =     14.56176  eV     1   --> A              
     e( 20 - 20) =     15.23292  eV     1   --> A              
     e( 21 - 21) =     15.69597  eV     1   --> A              
     e( 22 - 22) =     17.10674  eV     1   --> A              
     e( 23 - 23) =     18.11804  eV     1   --> A              
     e( 24 - 24) =     18.63172  eV     1   --> A              
     e( 25 - 25) =     20.14675  eV     1   --> A              
     e( 26 - 26) =     20.42701  eV     1   --> A              
     e( 27 - 27) =     20.97711  eV     1   --> A              
     e( 28 - 28) =     21.74586  eV     1   --> A              
     e( 29 - 29) =     21.80703  eV     1   --> A              
     e( 30 - 30) =     22.42395  eV     1   --> A              
     e( 31 - 31) =     22.73994  eV     1   --> A              
     e( 32 - 32) =     23.06747  eV     1   --> A              
     e( 33 - 33) =     23.16520  eV     1   --> A              
     e( 34 - 34) =     24.16215  eV     1   --> A              
     e( 35 - 35) =     24.96670  eV     1   --> A              
     e( 36 - 36) =     25.70314  eV     1   --> A              
     e( 37 - 37) =     26.67952  eV     1   --> A              
     e( 38 - 38) =     27.02137  eV     1   --> A              
     e( 39 - 39) =     27.93006  eV     1   --> A              
     e( 40 - 40) =     29.52811  eV     1   --> A              

 **************************************************************************

 **************************************************************************

                    xk=(   0.00000,   0.34641,  -0.12115  )

     Band symmetry, C_1 (1)     point group:

     e(  1 -  1) =     -6.30802  eV     1   --> A              
     e(  2 -  2) =     -4.76912  eV     1   --> A              
     e(  3 -  3) =     -2.14308  eV     1   --> A              
     e(  4 -  4) =      0.21718  eV     1   --> A              
     e(  5 -  5) =      1.11658  eV     1   --> A              
     e(  6 -  6) =      2.89606  eV     1   --> A              
     e(  7 -  7) =      3.86338  eV     1   --> A              
     e(  8 -  8) =      4.16042  eV     1   --> A              
     e(  9 -  9) =      5.92610  eV     1   --> A              
     e( 10 - 10) =      6.96275  eV     1   --> A              
     e( 11 - 11) =      8.21293  eV     1   --> A              
     e( 12 - 12) =      9.46770  eV     1   --> A              
     e( 13 - 13) =     10.23015  eV     1   --> A              
     e( 14 - 14) =     11.00196  eV     1   --> A              
     e( 15 - 15) =     12.01613  eV     1   --> A              
     e( 16 - 16) =     12.50606  eV     1   --> A              
     e( 17 - 17) =     12.87457  eV     1   --> A              
     e( 18 - 18) =     13.52787  eV     1   --> A              
     e( 19 - 19) =     13.58661  eV     1   --> A              
     e( 20 - 20) =     15.67742  eV     1   --> A              
     e( 21 - 21) =     16.81707  eV     1   --> A              
     e( 22 - 22) =     16.82315  eV     1   --> A              
     e( 23 - 23) =     17.71557  eV     1   --> A              
     e( 24 - 24) =     18.85716  eV     1   --> A              
     e( 25 - 25) =     19.38899  eV     1   --> A              
     e( 26 - 26) =     19.57119  eV     1   --> A              
     e( 27 - 27) =     21.62015  eV     1   --> A              
     e( 28 - 28) =     21.64466  eV     1   --> A              
     e( 29 - 29) =     22.30213  eV     1   --> A              
     e( 30 - 30) =     22.35215  eV     1   --> A              
     e( 31 - 31) =     22.51108  eV     1   --> A              
     e( 32 - 32) =     23.35641  eV     1   --> A              
     e( 33 - 33) =     23.70290  eV     1   --> A              
     e( 34 - 34) =     24.00961  eV     1   --> A              
     e( 35 - 35) =     24.41667  eV     1   --> A              
     e( 36 - 36) =     26.19110  eV     1   --> A              
     e( 37 - 37) =     27.19333  eV     1   --> A              
     e( 38 - 38) =     28.21186  eV     1   --> A              
     e( 39 - 39) =     28.76834  eV     1   --> A              
     e( 40 - 40) =     28.94656  eV     1   --> A              

 **************************************************************************

 **************************************************************************

                    xk=(   0.00000,   0.46188,   0.00000  )

     Band symmetry, C_1 (1)     point group:

     e(  1 -  1) =     -5.80168  eV     1   --> A              
     e(  2 -  2) =     -3.69661  eV     1   --> A              
     e(  3 -  3) =     -3.29762  eV     1   --> A              
     e(  4 -  4) =     -0.71514  eV     1   --> A              
     e(  5 -  5) =      0.74402  eV     1   --> A              
     e(  6 -  6) =      2.48604  eV     1   --> A              
     e(  7 -  7) =      2.96542  eV     1   --> A              
     e(  8 -  8) =      4.08941  eV     1   --> A              
     e(  9 -  9) =      5.99895  eV     1   --> A              
     e( 10 - 10) =      7.09529  eV     1   --> A              
     e( 11 - 11) =      9.02501  eV     1   --> A              
     e( 12 - 12) =      9.14311  eV     1   --> A              
     e( 13 - 13) =      9.30367  eV     1   --> A              
     e( 14 - 14) =     11.60041  eV     1   --> A              
     e( 15 - 15) =     12.53359  eV     1   --> A              
     e( 16 - 16) =     13.47682  eV     1   --> A              
     e( 17 - 17) =     14.23221  eV     1   --> A              
     e( 18 - 18) =     14.33820  eV     1   --> A              
     e( 19 - 19) =     14.82291  eV     1   --> A              
     e( 20 - 20) =     15.00527  eV     1   --> A              
     e( 21 - 21) =     16.88290  eV     1   --> A              
     e( 22 - 22) =     18.40983  eV     1   --> A              
     e( 23 - 23) =     18.46648  eV     1   --> A              
     e( 24 - 24) =     18.64586  eV     1   --> A              
     e( 25 - 25) =     19.71060  eV     1   --> A              
     e( 26 - 26) =     20.11087  eV     1   --> A              
     e( 27 - 27) =     20.71002  eV     1   --> A              
     e( 28 - 28) =     21.05269  eV     1   --> A              
     e( 29 - 29) =     21.14664  eV     1   --> A              
     e( 30 - 30) =     21.56806  eV     1   --> A              
     e( 31 - 31) =     21.73083  eV     1   --> A              
     e( 32 - 32) =     23.72838  eV     1   --> A              
     e( 33 - 33) =     24.97762  eV     1   --> A              
     e( 34 - 34) =     25.57975  eV     1   --> A              
     e( 35 - 35) =     25.58712  eV     1   --> A              
     e( 36 - 36) =     25.59517  eV     1   --> A              
     e( 37 - 37) =     27.33864  eV     1   --> A              
     e( 38 - 38) =     28.12713  eV     1   --> A              
     e( 39 - 39) =     28.17029  eV     1   --> A              
     e( 40 - 40) =     28.86529  eV     1   --> A              

 **************************************************************************

 **************************************************************************

                    xk=(   0.00000,   0.46188,   0.12115  )

     Band symmetry, C_1 (1)     point group:

     e(  1 -  1) =     -5.69005  eV     1   --> A              
     e(  2 -  2) =     -4.20821  eV     1   --> A              
     e(  3 -  3) =     -2.84836  eV     1   --> A              
     e(  4 -  4) =     -1.02296  eV     1   --> A              
     e(  5 -  5) =      1.14520  eV     1   --> A              
     e(  6 -  6) =      2.59608  eV     1   --> A              
     e(  7 -  7) =      3.30143  eV     1   --> A              
     e(  8 -  8) =      3.86283  eV     1   --> A              
     e(  9 -  9) =      5.92957  eV     1   --> A              
     e( 10 - 10) =      6.49575  eV     1   --> A              
     e( 11 - 11) =      8.30700  eV     1   --> A              
     e( 12 - 12) =      9.59557  eV     1   --> A              
     e( 13 - 13) =      9.82944  eV     1   --> A              
     e( 14 - 14) =     10.62066  eV     1   --> A              
     e( 15 - 15) =     13.58309  eV     1   --> A              
     e( 16 - 16) =     13.65225  eV     1   --> A              
     e( 17 - 17) =     13.98833  eV     1   --> A              
     e( 18 - 18) =     14.67740  eV     1   --> A              
     e( 19 - 19) =     14.98749  eV     1   --> A              
     e( 20 - 20) =     15.72209  eV     1   --> A              
     e( 21 - 21) =     16.28345  eV     1   --> A              
     e( 22 - 22) =     17.21075  eV     1   --> A              
     e( 23 - 23) =     18.06707  eV     1   --> A              
     e( 24 - 24) =     19.45025  eV     1   --> A              
     e( 25 - 25) =     19.60214  eV     1   --> A              
     e( 26 - 26) =     20.16387  eV     1   --> A              
     e( 27 - 27) =     21.06954  eV     1   --> A              
     e( 28 - 28) =     21.29752  eV     1   --> A              
     e( 29 - 29) =     21.94459  eV     1   --> A              
     e( 30 - 30) =     22.28945  eV     1   --> A              
     e( 31 - 31) =     22.35566  eV     1   --> A              
     e( 32 - 32) =     22.89055  eV     1   --> A              
     e( 33 - 33) =     23.64916  eV     1   --> A              
     e( 34 - 34) =     25.66713  eV     1   --> A              
     e( 35 - 35) =     25.80767  eV     1   --> A              
     e( 36 - 36) =     26.03459  eV     1   --> A              
     e( 37 - 37) =     26.19868  eV     1   --> A              
     e( 38 - 38) =     26.22402  eV     1   --> A              
     e( 39 - 39) =     27.89043  eV     1   --> A              
     e( 40 - 40) =     28.30530  eV     1   --> A              

 **************************************************************************

 **************************************************************************

                    xk=(   0.00000,   0.46188,   0.24230  )

     Band symmetry, C_1 (1)     point group:

     e(  1 -  1) =     -5.36261  eV     1   --> A              
     e(  2 -  2) =     -4.84671  eV     1   --> A              
     e(  3 -  3) =     -2.27314  eV     1   --> A              
     e(  4 -  4) =     -1.64461  eV     1   --> A              
     e(  5 -  5) =      2.16394  eV     1   --> A              
     e(  6 -  6) =      2.91200  eV     1   --> A              
     e(  7 -  7) =      3.27541  eV     1   --> A              
     e(  8 -  8) =      3.37986  eV     1   --> A              
     e(  9 -  9) =      5.72418  eV     1   --> A              
     e( 10 - 10) =      6.33479  eV     1   --> A              
     e( 11 - 11) =      7.64425  eV     1   --> A              
     e( 12 - 12) =      8.33049  eV     1   --> A              
     e( 13 - 13) =     10.73412  eV     1   --> A              
     e( 14 - 14) =     12.10069  eV     1   --> A              
     e( 15 - 15) =     12.19656  eV     1   --> A              
     e( 16 - 16) =     13.65187  eV     1   --> A              
     e( 17 - 17) =     14.16079  eV     1   --> A              
     e( 18 - 18) =     14.86763  eV     1   --> A              
     e( 19 - 19) =     15.42280  eV     1   --> A              
     e( 20 - 20) =     16.14974  eV     1   --> A              
     e( 21 - 21) =     16.33035  eV     1   --> A              
     e( 22 - 22) =     17.67139  eV     1   --> A              
     e( 23 - 23) =     18.54597  eV     1   --> A              
     e( 24 - 24) =     19.02945  eV     1   --> A              
     e( 25 - 25) =     19.86124  eV     1   --> A              
     e( 26 - 26) =     20.25345  eV     1   --> A              
     e( 27 - 27) =     20.29080  eV     1   --> A              
     e( 28 - 28) =     20.90996  eV     1   --> A              
     e( 29 - 29) =     22.12347  eV     1   --> A              
     e( 30 - 30) =     22.46383  eV     1   --> A              
     e( 31 - 31) =     22.73576  eV     1   --> A              
     e( 32 - 32) =     23.35131  eV     1   --> A              
     e( 33 - 33) =     23.87512  eV     1   --> A              
     e( 34 - 34) =     24.61887  eV     1   --> A              
     e( 35 - 35) =     24.71622  eV     1   --> A              
     e( 36 - 36) =     26.11843  eV     1   --> A              
     e( 37 - 37) =     26.92730  eV     1   --> A              
     e( 38 - 38) =     27.32546  eV     1   --> A              
     e( 39 - 39) =     27.74045  eV     1   --> A              
     e( 40 - 40) =     27.98056  eV     1   --> A              

 **************************************************************************

 **************************************************************************

                    xk=(   0.00000,   0.46188,  -0.24230  )

     Band symmetry, C_1 (1)     point group:

     e(  1 -  1) =     -5.36261  eV     1   --> A              
     e(  2 -  2) =     -4.84671  eV     1   --> A              
     e(  3 -  3) =     -2.27314  eV     1   --> A              
     e(  4 -  4) =     -1.64461  eV     1   --> A              
     e(  5 -  5) =      2.16394  eV     1   --> A              
     e(  6 -  6) =      2.91200  eV     1   --> A              
     e(  7 -  7) =      3.27541  eV     1   --> A              
     e(  8 -  8) =      3.37986  eV     1   --> A              
     e(  9 -  9) =      5.72418  eV     1   --> A              
     e( 10 - 10) =      6.33479  eV     1   --> A              
     e( 11 - 11) =      7.64425  eV     1   --> A              
     e( 12 - 12) =      8.33049  eV     1   --> A              
     e( 13 - 13) =     10.73412  eV     1   --> A              
     e( 14 - 14) =     12.10069  eV     1   --> A              
     e( 15 - 15) =     12.19656  eV     1   --> A              
     e( 16 - 16) =     13.65187  eV     1   --> A              
     e( 17 - 17) =     14.16079  eV     1   --> A              
     e( 18 - 18) =     14.86763  eV     1   --> A              
     e( 19 - 19) =     15.42280  eV     1   --> A              
     e( 20 - 20) =     16.14974  eV     1   --> A              
     e( 21 - 21) =     16.33035  eV     1   --> A              
     e( 22 - 22) =     17.67139  eV     1   --> A              
     e( 23 - 23) =     18.54597  eV     1   --> A              
     e( 24 - 24) =     19.02945  eV     1   --> A              
     e( 25 - 25) =     19.86124  eV     1   --> A              
     e( 26 - 26) =     20.25345  eV     1   --> A              
     e( 27 - 27) =     20.29080  eV     1   --> A              
     e( 28 - 28) =     20.90996  eV     1   --> A              
     e( 29 - 29) =     22.12347  eV     1   --> A              
     e( 30 - 30) =     22.46383  eV     1   --> A              
     e( 31 - 31) =     22.73576  eV     1   --> A              
     e( 32 - 32) =     23.35131  eV     1   --> A              
     e( 33 - 33) =     23.87512  eV     1   --> A              
     e( 34 - 34) =     24.61887  eV     1   --> A              
     e( 35 - 35) =     24.71622  eV     1   --> A              
     e( 36 - 36) =     26.11843  eV     1   --> A              
     e( 37 - 37) =     26.92730  eV     1   --> A              
     e( 38 - 38) =     27.32546  eV     1   --> A              
     e( 39 - 39) =     27.74044  eV     1   --> A              
     e( 40 - 40) =     27.98055  eV     1   --> A              

 **************************************************************************

 **************************************************************************

                    xk=(   0.00000,   0.46188,  -0.12115  )

     Band symmetry, C_1 (1)     point group:

     e(  1 -  1) =     -5.69005  eV     1   --> A              
     e(  2 -  2) =     -4.20821  eV     1   --> A              
     e(  3 -  3) =     -2.84836  eV     1   --> A              
     e(  4 -  4) =     -1.02296  eV     1   --> A              
     e(  5 -  5) =      1.14520  eV     1   --> A              
     e(  6 -  6) =      2.59608  eV     1   --> A              
     e(  7 -  7) =      3.30143  eV     1   --> A              
     e(  8 -  8) =      3.86283  eV     1   --> A              
     e(  9 -  9) =      5.92957  eV     1   --> A              
     e( 10 - 10) =      6.49575  eV     1   --> A              
     e( 11 - 11) =      8.30700  eV     1   --> A              
     e( 12 - 12) =      9.59557  eV     1   --> A              
     e( 13 - 13) =      9.82944  eV     1   --> A              
     e( 14 - 14) =     10.62066  eV     1   --> A              
     e( 15 - 15) =     13.58309  eV     1   --> A              
     e( 16 - 16) =     13.65225  eV     1   --> A              
     e( 17 - 17) =     13.98833  eV     1   --> A              
     e( 18 - 18) =     14.67740  eV     1   --> A              
     e( 19 - 19) =     14.98749  eV     1   --> A              
     e( 20 - 20) =     15.72209  eV     1   --> A              
     e( 21 - 21) =     16.28345  eV     1   --> A              
     e( 22 - 22) =     17.21075  eV     1   --> A              
     e( 23 - 23) =     18.06707  eV     1   --> A              
     e( 24 - 24) =     19.45025  eV     1   --> A              
     e( 25 - 25) =     19.60214  eV     1   --> A              
     e( 26 - 26) =     20.16387  eV     1   --> A              
     e( 27 - 27) =     21.06954  eV     1   --> A              
     e( 28 - 28) =     21.29752  eV     1   --> A              
     e( 29 - 29) =     21.94459  eV     1   --> A              
     e( 30 - 30) =     22.28945  eV     1   --> A              
     e( 31 - 31) =     22.35566  eV     1   --> A              
     e( 32 - 32) =     22.89055  eV     1   --> A              
     e( 33 - 33) =     23.64916  eV     1   --> A              
     e( 34 - 34) =     25.66713  eV     1   --> A              
     e( 35 - 35) =     25.80767  eV     1   --> A              
     e( 36 - 36) =     26.03459  eV     1   --> A              
     e( 37 - 37) =     26.19868  eV     1   --> A              
     e( 38 - 38) =     26.22402  eV     1   --> A              
     e( 39 - 39) =     27.89043  eV     1   --> A              
     e( 40 - 40) =     28.30530  eV     1   --> A              

 **************************************************************************

 **************************************************************************

                    xk=(   0.00000,  -0.57735,   0.00000  )

     Band symmetry, C_1 (1)     point group:

     e(  1 -  1) =     -5.40554  eV     1   --> A              
     e(  2 -  2) =     -3.76530  eV     1   --> A              
     e(  3 -  3) =     -3.25817  eV     1   --> A              
     e(  4 -  4) =     -1.36562  eV     1   --> A              
     e(  5 -  5) =      0.86180  eV     1   --> A              
     e(  6 -  6) =      2.38190  eV     1   --> A              
     e(  7 -  7) =      2.61380  eV     1   --> A              
     e(  8 -  8) =      3.98554  eV     1   --> A              
     e(  9 -  9) =      5.90719  eV     1   --> A              
     e( 10 - 10) =      7.03503  eV     1   --> A              
     e( 11 - 11) =      8.93095  eV     1   --> A              
     e( 12 - 12) =      9.13948  eV     1   --> A              
     e( 13 - 13) =      9.75442  eV     1   --> A              
     e( 14 - 14) =     10.96923  eV     1   --> A              
     e( 15 - 15) =     12.89365  eV     1   --> A              
     e( 16 - 16) =     13.52138  eV     1   --> A              
     e( 17 - 17) =     14.82105  eV     1   --> A              
     e( 18 - 18) =     15.64832  eV     1   --> A              
     e( 19 - 19) =     15.69658  eV     1   --> A              
     e( 20 - 20) =     16.31803  eV     1   --> A              
     e( 21 - 21) =     16.43715  eV     1   --> A              
     e( 22 - 22) =     17.28831  eV     1   --> A              
     e( 23 - 23) =     17.85170  eV     1   --> A              
     e( 24 - 24) =     18.94088  eV     1   --> A              
     e( 25 - 25) =     19.33740  eV     1   --> A              
     e( 26 - 26) =     19.69294  eV     1   --> A              
     e( 27 - 27) =     19.94548  eV     1   --> A              
     e( 28 - 28) =     20.07892  eV     1   --> A              
     e( 29 - 29) =     22.06423  eV     1   --> A              
     e( 30 - 30) =     23.13084  eV     1   --> A              
     e( 31 - 31) =     23.15078  eV     1   --> A              
     e( 32 - 32) =     23.35359  eV     1   --> A              
     e( 33 - 33) =     24.54245  eV     1   --> A              
     e( 34 - 34) =     24.73879  eV     1   --> A              
     e( 35 - 35) =     26.14691  eV     1   --> A              
     e( 36 - 36) =     26.59497  eV     1   --> A              
     e( 37 - 37) =     26.93043  eV     1   --> A              
     e( 38 - 38) =     27.02480  eV     1   --> A              
     e( 39 - 39) =     28.52074  eV     1   --> A              
     e( 40 - 40) =     28.54697  eV     1   --> A              

 **************************************************************************

 **************************************************************************

                    xk=(   0.00000,  -0.57735,   0.12115  )

     Band symmetry, C_1 (1)     point group:

     e(  1 -  1) =     -5.30024  eV     1   --> A              
     e(  2 -  2) =     -4.03604  eV     1   --> A              
     e(  3 -  3) =     -3.09166  eV     1   --> A              
     e(  4 -  4) =     -1.64373  eV     1   --> A              
     e(  5 -  5) =      1.29058  eV     1   --> A              
     e(  6 -  6) =      2.49210  eV     1   --> A              
     e(  7 -  7) =      2.99706  eV     1   --> A              
     e(  8 -  8) =      3.75941  eV     1   --> A              
     e(  9 -  9) =      6.00626  eV     1   --> A              
     e( 10 - 10) =      6.26354  eV     1   --> A              
[...]

                    xk=(  -0.10000,  -0.28868,  -0.24230  )

     Band symmetry, C_1 (1)     point group:

     e(  1 -  1) =     -6.15922  eV     1   --> A              
     e(  2 -  2) =     -5.61453  eV     1   --> A              
     e(  3 -  3) =     -0.99503  eV     1   --> A              
     e(  4 -  4) =     -0.05690  eV     1   --> A              
     e(  5 -  5) =      2.10344  eV     1   --> A              
     e(  6 -  6) =      2.98889  eV     1   --> A              
     e(  7 -  7) =      3.23044  eV     1   --> A              
     e(  8 -  8) =      3.50359  eV     1   --> A              
     e(  9 -  9) =      6.91355  eV     1   --> A              
     e( 10 - 10) =      7.68598  eV     1   --> A              
     e( 11 - 11) =      8.33739  eV     1   --> A              
     e( 12 - 12) =      9.21428  eV     1   --> A              
     e( 13 - 13) =      9.74148  eV     1   --> A              
     e( 14 - 14) =     10.53441  eV     1   --> A              
     e( 15 - 15) =     10.74290  eV     1   --> A              
     e( 16 - 16) =     11.76474  eV     1   --> A              
     e( 17 - 17) =     13.36673  eV     1   --> A              
     e( 18 - 18) =     13.93708  eV     1   --> A              
     e( 19 - 19) =     14.57819  eV     1   --> A              
     e( 20 - 20) =     15.45652  eV     1   --> A              
     e( 21 - 21) =     15.82927  eV     1   --> A              
     e( 22 - 22) =     16.52515  eV     1   --> A              
     e( 23 - 23) =     17.65508  eV     1   --> A              
     e( 24 - 24) =     18.29715  eV     1   --> A              
     e( 25 - 25) =     18.71780  eV     1   --> A              
     e( 26 - 26) =     20.05888  eV     1   --> A              
     e( 27 - 27) =     20.69923  eV     1   --> A              
     e( 28 - 28) =     21.38268  eV     1   --> A              
     e( 29 - 29) =     22.15406  eV     1   --> A              
     e( 30 - 30) =     22.40539  eV     1   --> A              
     e( 31 - 31) =     22.69748  eV     1   --> A              
     e( 32 - 32) =     23.95857  eV     1   --> A              
     e( 33 - 33) =     24.32105  eV     1   --> A              
     e( 34 - 34) =     24.63558  eV     1   --> A              
     e( 35 - 35) =     25.42892  eV     1   --> A              
     e( 36 - 36) =     26.28220  eV     1   --> A              
     e( 37 - 37) =     26.61059  eV     1   --> A              
     e( 38 - 38) =     27.56333  eV     1   --> A              
     e( 39 - 39) =     27.85804  eV     1   --> A              
     e( 40 - 40) =     29.55698  eV     1   --> A              

 **************************************************************************

 **************************************************************************

                    xk=(  -0.10000,  -0.28868,  -0.12115  )

     Band symmetry, C_1 (1)     point group:

     e(  1 -  1) =     -6.50381  eV     1   --> A              
     e(  2 -  2) =     -4.96314  eV     1   --> A              
     e(  3 -  3) =     -1.91739  eV     1   --> A              
     e(  4 -  4) =      0.77018  eV     1   --> A              
     e(  5 -  5) =      1.34259  eV     1   --> A              
     e(  6 -  6) =      2.65121  eV     1   --> A              
     e(  7 -  7) =      3.94894  eV     1   --> A              
     e(  8 -  8) =      4.14318  eV     1   --> A              
     e(  9 -  9) =      6.56245  eV     1   --> A              
     e( 10 - 10) =      7.54591  eV     1   --> A              
     e( 11 - 11) =      8.66886  eV     1   --> A              
     e( 12 - 12) =      9.01482  eV     1   --> A              
     e( 13 - 13) =      9.55790  eV     1   --> A              
     e( 14 - 14) =     10.39590  eV     1   --> A              
     e( 15 - 15) =     11.73950  eV     1   --> A              
     e( 16 - 16) =     12.08555  eV     1   --> A              
     e( 17 - 17) =     12.72641  eV     1   --> A              
     e( 18 - 18) =     13.07024  eV     1   --> A              
     e( 19 - 19) =     14.25540  eV     1   --> A              
     e( 20 - 20) =     14.99935  eV     1   --> A              
     e( 21 - 21) =     16.54395  eV     1   --> A              
     e( 22 - 22) =     17.08317  eV     1   --> A              
     e( 23 - 23) =     17.64242  eV     1   --> A              
     e( 24 - 24) =     17.75588  eV     1   --> A              
     e( 25 - 25) =     19.27438  eV     1   --> A              
     e( 26 - 26) =     19.64470  eV     1   --> A              
     e( 27 - 27) =     20.95885  eV     1   --> A              
     e( 28 - 28) =     21.32422  eV     1   --> A              
     e( 29 - 29) =     21.67060  eV     1   --> A              
     e( 30 - 30) =     22.30876  eV     1   --> A              
     e( 31 - 31) =     22.94349  eV     1   --> A              
     e( 32 - 32) =     23.54150  eV     1   --> A              
     e( 33 - 33) =     24.82164  eV     1   --> A              
     e( 34 - 34) =     25.22907  eV     1   --> A              
     e( 35 - 35) =     25.48301  eV     1   --> A              
     e( 36 - 36) =     26.51306  eV     1   --> A              
     e( 37 - 37) =     27.14799  eV     1   --> A              
     e( 38 - 38) =     27.74916  eV     1   --> A              
     e( 39 - 39) =     28.09900  eV     1   --> A              
     e( 40 - 40) =     28.47671  eV     1   --> A              

 **************************************************************************

 **************************************************************************

                    xk=(  -0.10000,  -0.17321,   0.00000  )

     Band symmetry, C_1 (1)     point group:

     e(  1 -  1) =     -7.03328  eV     1   --> A              
     e(  2 -  2) =     -5.01316  eV     1   --> A              
     e(  3 -  3) =     -2.20964  eV     1   --> A              
     e(  4 -  4) =      1.91779  eV     1   --> A              
     e(  5 -  5) =      2.60411  eV     1   --> A              
     e(  6 -  6) =      3.19012  eV     1   --> A              
     e(  7 -  7) =      4.72250  eV     1   --> A              
     e(  8 -  8) =      4.83268  eV     1   --> A              
     e(  9 -  9) =      6.92973  eV     1   --> A              
     e( 10 - 10) =      7.08630  eV     1   --> A              
     e( 11 - 11) =      7.68533  eV     1   --> A              
     e( 12 - 12) =      8.75478  eV     1   --> A              
     e( 13 - 13) =      9.05679  eV     1   --> A              
     e( 14 - 14) =      9.92651  eV     1   --> A              
     e( 15 - 15) =     11.33139  eV     1   --> A              
     e( 16 - 16) =     11.51340  eV     1   --> A              
     e( 17 - 17) =     12.00889  eV     1   --> A              
     e( 18 - 18) =     13.03511  eV     1   --> A              
     e( 19 - 19) =     13.85443  eV     1   --> A              
     e( 20 - 20) =     14.45287  eV     1   --> A              
     e( 21 - 21) =     15.28718  eV     1   --> A              
     e( 22 - 22) =     16.86271  eV     1   --> A              
     e( 23 - 23) =     17.14483  eV     1   --> A              
     e( 24 - 24) =     17.30976  eV     1   --> A              
     e( 25 - 25) =     18.79011  eV     1   --> A              
     e( 26 - 26) =     19.15469  eV     1   --> A              
     e( 27 - 27) =     19.88124  eV     1   --> A              
     e( 28 - 28) =     20.17836  eV     1   --> A              
     e( 29 - 29) =     22.45535  eV     1   --> A              
     e( 30 - 30) =     22.70353  eV     1   --> A              
     e( 31 - 31) =     23.42461  eV     1   --> A              
     e( 32 - 32) =     24.33558  eV     1   --> A              
     e( 33 - 33) =     24.99696  eV     1   --> A              
     e( 34 - 34) =     25.35399  eV     1   --> A              
     e( 35 - 35) =     26.38041  eV     1   --> A              
     e( 36 - 36) =     26.93055  eV     1   --> A              
     e( 37 - 37) =     27.65801  eV     1   --> A              
     e( 38 - 38) =     27.93235  eV     1   --> A              
     e( 39 - 39) =     28.03665  eV     1   --> A              
     e( 40 - 40) =     28.49146  eV     1   --> A              

 **************************************************************************

 **************************************************************************

                    xk=(  -0.10000,  -0.17321,   0.12115  )

     Band symmetry, C_1 (1)     point group:

     e(  1 -  1) =     -6.91517  eV     1   --> A              
     e(  2 -  2) =     -5.37759  eV     1   --> A              
     e(  3 -  3) =     -1.64839  eV     1   --> A              
     e(  4 -  4) =      2.04032  eV     1   --> A              
     e(  5 -  5) =      2.08212  eV     1   --> A              
     e(  6 -  6) =      3.31230  eV     1   --> A              
     e(  7 -  7) =      4.41452  eV     1   --> A              
     e(  8 -  8) =      4.59375  eV     1   --> A              
     e(  9 -  9) =      6.91259  eV     1   --> A              
     e( 10 - 10) =      7.06475  eV     1   --> A              
     e( 11 - 11) =      8.40748  eV     1   --> A              
     e( 12 - 12) =      8.82554  eV     1   --> A              
     e( 13 - 13) =      9.03963  eV     1   --> A              
     e( 14 - 14) =      9.55400  eV     1   --> A              
     e( 15 - 15) =     11.20778  eV     1   --> A              
     e( 16 - 16) =     12.04248  eV     1   --> A              
     e( 17 - 17) =     12.27384  eV     1   --> A              
     e( 18 - 18) =     13.12606  eV     1   --> A              
     e( 19 - 19) =     13.47731  eV     1   --> A              
     e( 20 - 20) =     14.46504  eV     1   --> A              
     e( 21 - 21) =     15.70409  eV     1   --> A              
     e( 22 - 22) =     16.31704  eV     1   --> A              
     e( 23 - 23) =     16.95132  eV     1   --> A              
     e( 24 - 24) =     17.60732  eV     1   --> A              
     e( 25 - 25) =     18.08539  eV     1   --> A              
     e( 26 - 26) =     19.00227  eV     1   --> A              
     e( 27 - 27) =     20.44920  eV     1   --> A              
     e( 28 - 28) =     20.45014  eV     1   --> A              
     e( 29 - 29) =     22.06553  eV     1   --> A              
     e( 30 - 30) =     22.12159  eV     1   --> A              
     e( 31 - 31) =     23.70825  eV     1   --> A              
     e( 32 - 32) =     24.33871  eV     1   --> A              
     e( 33 - 33) =     24.77151  eV     1   --> A              
     e( 34 - 34) =     25.72316  eV     1   --> A              
     e( 35 - 35) =     26.04314  eV     1   --> A              
     e( 36 - 36) =     27.12153  eV     1   --> A              
     e( 37 - 37) =     27.30296  eV     1   --> A              
     e( 38 - 38) =     28.38717  eV     1   --> A              
     e( 39 - 39) =     28.47528  eV     1   --> A              
     e( 40 - 40) =     29.28834  eV     1   --> A              

 **************************************************************************

 **************************************************************************

                    xk=(  -0.10000,  -0.17321,   0.24230  )

     Band symmetry, C_1 (1)     point group:

     e(  1 -  1) =     -6.56778  eV     1   --> A              
     e(  2 -  2) =     -6.02083  eV     1   --> A              
     e(  3 -  3) =     -0.45280  eV     1   --> A              
     e(  4 -  4) =      0.87846  eV     1   --> A              
     e(  5 -  5) =      2.58649  eV     1   --> A              
     e(  6 -  6) =      3.43942  eV     1   --> A              
     e(  7 -  7) =      3.63107  eV     1   --> A              
     e(  8 -  8) =      4.10017  eV     1   --> A              
     e(  9 -  9) =      7.41148  eV     1   --> A              
     e( 10 - 10) =      7.57305  eV     1   --> A              
     e( 11 - 11) =      8.14272  eV     1   --> A              
     e( 12 - 12) =      8.71827  eV     1   --> A              
     e( 13 - 13) =      9.70658  eV     1   --> A              
     e( 14 - 14) =      9.76672  eV     1   --> A              
     e( 15 - 15) =     10.54326  eV     1   --> A              
     e( 16 - 16) =     11.17028  eV     1   --> A              
     e( 17 - 17) =     13.37345  eV     1   --> A              
     e( 18 - 18) =     13.37458  eV     1   --> A              
     e( 19 - 19) =     14.49156  eV     1   --> A              
     e( 20 - 20) =     14.54033  eV     1   --> A              
     e( 21 - 21) =     15.15210  eV     1   --> A              
     e( 22 - 22) =     16.20374  eV     1   --> A              
     e( 23 - 23) =     16.71422  eV     1   --> A              
     e( 24 - 24) =     16.96719  eV     1   --> A              
     e( 25 - 25) =     18.27399  eV     1   --> A              
     e( 26 - 26) =     19.02620  eV     1   --> A              
     e( 27 - 27) =     19.15842  eV     1   --> A              
     e( 28 - 28) =     20.45829  eV     1   --> A              
     e( 29 - 29) =     21.89907  eV     1   --> A              
     e( 30 - 30) =     22.65592  eV     1   --> A              
     e( 31 - 31) =     23.32823  eV     1   --> A              
     e( 32 - 32) =     24.72993  eV     1   --> A              
     e( 33 - 33) =     25.47573  eV     1   --> A              
     e( 34 - 34) =     25.72058  eV     1   --> A              
     e( 35 - 35) =     25.87945  eV     1   --> A              
     e( 36 - 36) =     27.62550  eV     1   --> A              
     e( 37 - 37) =     27.89150  eV     1   --> A              
     e( 38 - 38) =     28.73733  eV     1   --> A              
     e( 39 - 39) =     28.89268  eV     1   --> A              
     e( 40 - 40) =     28.89881  eV     1   --> A              

 **************************************************************************

 **************************************************************************

                    xk=(  -0.10000,  -0.17321,  -0.24230  )

     Band symmetry, C_1 (1)     point group:

     e(  1 -  1) =     -6.56778  eV     1   --> A              
     e(  2 -  2) =     -6.02083  eV     1   --> A              
     e(  3 -  3) =     -0.45280  eV     1   --> A              
     e(  4 -  4) =      0.87846  eV     1   --> A              
     e(  5 -  5) =      2.58649  eV     1   --> A              
     e(  6 -  6) =      3.43942  eV     1   --> A              
     e(  7 -  7) =      3.63107  eV     1   --> A              
     e(  8 -  8) =      4.10017  eV     1   --> A              
     e(  9 -  9) =      7.41148  eV     1   --> A              
     e( 10 - 10) =      7.57305  eV     1   --> A              
     e( 11 - 11) =      8.14272  eV     1   --> A              
     e( 12 - 12) =      8.71827  eV     1   --> A              
     e( 13 - 13) =      9.70658  eV     1   --> A              
     e( 14 - 14) =      9.76672  eV     1   --> A              
     e( 15 - 15) =     10.54326  eV     1   --> A              
     e( 16 - 16) =     11.17028  eV     1   --> A              
     e( 17 - 17) =     13.37345  eV     1   --> A              
     e( 18 - 18) =     13.37458  eV     1   --> A              
     e( 19 - 19) =     14.49156  eV     1   --> A              
     e( 20 - 20) =     14.54033  eV     1   --> A              
     e( 21 - 21) =     15.15210  eV     1   --> A              
     e( 22 - 22) =     16.20374  eV     1   --> A              
     e( 23 - 23) =     16.71422  eV     1   --> A              
     e( 24 - 24) =     16.96719  eV     1   --> A              
     e( 25 - 25) =     18.27399  eV     1   --> A              
     e( 26 - 26) =     19.02620  eV     1   --> A              
     e( 27 - 27) =     19.15842  eV     1   --> A              
     e( 28 - 28) =     20.45829  eV     1   --> A              
     e( 29 - 29) =     21.89907  eV     1   --> A              
     e( 30 - 30) =     22.65592  eV     1   --> A              
     e( 31 - 31) =     23.32823  eV     1   --> A              
     e( 32 - 32) =     24.72993  eV     1   --> A              
     e( 33 - 33) =     25.47573  eV     1   --> A              
     e( 34 - 34) =     25.72058  eV     1   --> A              
     e( 35 - 35) =     25.87945  eV     1   --> A              
     e( 36 - 36) =     27.62550  eV     1   --> A              
     e( 37 - 37) =     27.89150  eV     1   --> A              
     e( 38 - 38) =     28.73733  eV     1   --> A              
     e( 39 - 39) =     28.89266  eV     1   --> A              
     e( 40 - 40) =     28.89885  eV     1   --> A              

 **************************************************************************

 **************************************************************************

                    xk=(  -0.10000,  -0.17321,  -0.12115  )

     Band symmetry, C_1 (1)     point group:

     e(  1 -  1) =     -6.91517  eV     1   --> A              
     e(  2 -  2) =     -5.37759  eV     1   --> A              
     e(  3 -  3) =     -1.64839  eV     1   --> A              
     e(  4 -  4) =      2.04032  eV     1   --> A              
     e(  5 -  5) =      2.08212  eV     1   --> A              
     e(  6 -  6) =      3.31230  eV     1   --> A              
     e(  7 -  7) =      4.41452  eV     1   --> A              
     e(  8 -  8) =      4.59375  eV     1   --> A              
     e(  9 -  9) =      6.91259  eV     1   --> A              
     e( 10 - 10) =      7.06475  eV     1   --> A              
     e( 11 - 11) =      8.40748  eV     1   --> A              
     e( 12 - 12) =      8.82554  eV     1   --> A              
     e( 13 - 13) =      9.03963  eV     1   --> A              
     e( 14 - 14) =      9.55400  eV     1   --> A              
     e( 15 - 15) =     11.20778  eV     1   --> A              
     e( 16 - 16) =     12.04248  eV     1   --> A              
     e( 17 - 17) =     12.27384  eV     1   --> A              
     e( 18 - 18) =     13.12606  eV     1   --> A              
     e( 19 - 19) =     13.47731  eV     1   --> A              
     e( 20 - 20) =     14.46504  eV     1   --> A              
     e( 21 - 21) =     15.70409  eV     1   --> A              
     e( 22 - 22) =     16.31704  eV     1   --> A              
     e( 23 - 23) =     16.95132  eV     1   --> A              
     e( 24 - 24) =     17.60732  eV     1   --> A              
     e( 25 - 25) =     18.08539  eV     1   --> A              
     e( 26 - 26) =     19.00227  eV     1   --> A              
     e( 27 - 27) =     20.44920  eV     1   --> A              
     e( 28 - 28) =     20.45014  eV     1   --> A              
     e( 29 - 29) =     22.06553  eV     1   --> A              
     e( 30 - 30) =     22.12159  eV     1   --> A              
     e( 31 - 31) =     23.70825  eV     1   --> A              
     e( 32 - 32) =     24.33871  eV     1   --> A              
     e( 33 - 33) =     24.77151  eV     1   --> A              
     e( 34 - 34) =     25.72316  eV     1   --> A              
     e( 35 - 35) =     26.04314  eV     1   --> A              
     e( 36 - 36) =     27.12153  eV     1   --> A              
     e( 37 - 37) =     27.30296  eV     1   --> A              
     e( 38 - 38) =     28.38717  eV     1   --> A              
     e( 39 - 39) =     28.47519  eV     1   --> A              
     e( 40 - 40) =     29.28792  eV     1   --> A              

 **************************************************************************

     BANDS        :   4m34.90s CPU   5m56.84s WALL


   This run was terminated on:  12:21: 9  11Feb2026            

=------------------------------------------------------------------------------=
   JOB DONE.
=------------------------------------------------------------------------------=
