
     Program PHONON v.7.3.1 starts on 11Feb2026 at 11:38:20 

     This program is part of the open-source Quantum ESPRESSO suite
     for quantum simulation of materials; please cite
         "P. Giannozzi et al., J. Phys.:Condens. Matter 21 395502 (2009);
         "P. Giannozzi et al., J. Phys.:Condens. Matter 29 465901 (2017);
         "P. Giannozzi et al., J. Chem. Phys. 152 154105 (2020);
          URL http://www.quantum-espresso.org", 
     in publications or presentations arising from this work. More details at
     http://www.quantum-espresso.org/quote

     Parallel version (MPI), running on    48 processors

     MPI processes distributed on     1 nodes
     R & G space division:  proc/nbgrp/npool/nimage =      48
     247276 MiB available memory on the printing compute node when the environment starts

     Waiting for input...
     Reading input from standard input
      Title line not specified: using 'default'.

     Reading xml data from directory:

     temp/hexge.save/

     IMPORTANT: XC functional enforced from input :
     Exchange-correlation= PZ
                           (   1   1   0   0   0   0   0)
     Any further DFT definition will be discarded
     Please, verify this is what you really want


     Parallelization info
     --------------------
     sticks:   dense  smooth     PW     G-vecs:    dense   smooth      PW
     Min          19      19      6                  801      801     136
     Max          20      20      7                  812      812     141
     Sum         955     955    295                38707    38707    6617

     Using Slab Decomposition

     Reading collected, re-writing distributed wavefunctions

     Number and degeneracy of irreps per q-point
       N         xq(1)         xq(2)         xq(3)   N irreps
       1   0.000000000   0.000000000   0.000000000      12
     No degeneracy

     Saving dvscf to file. Distribute only q points, not irreducible representations.

     Calculation of q =    0.0000000   0.0000000   0.0000000

     default                                                                    

     bravais-lattice index     =            0
     lattice parameter (alat)  =       7.5543  a.u.
     unit-cell volume          =     616.3478 (a.u.)^3
     number of atoms/cell      =            4
     number of atomic types    =            1
     kinetic-energy cut-off    =      60.0000  Ry
     charge density cut-off    =     240.0000  Ry
     convergence threshold     =      1.0E-12
     beta                      =       0.7000
     number of iterations used =            4
     Exchange-correlation= PZ
                           (   1   1   0   0   0   0   0)


     celldm(1)=    7.55434  celldm(2)=    0.00000  celldm(3)=    0.00000
     celldm(4)=    0.00000  celldm(5)=    0.00000  celldm(6)=    0.00000

     crystal axes: (cart. coord. in units of alat)
               a(1) = (  1.0000  0.0000  0.0000 )  
               a(2) = ( -0.5000  0.8660  0.0000 )  
               a(3) = (  0.0000  0.0000  1.6508 )  

     reciprocal axes: (cart. coord. in units 2 pi/alat)
               b(1) = (  1.0000  0.5774 -0.0000 )  
               b(2) = (  0.0000  1.1547  0.0000 )  
               b(3) = (  0.0000 -0.0000  0.6058 )  


     Atoms inside the unit cell: 

     Cartesian axes

     site n.  atom      mass           positions (alat units)
        1  Ge     72.6400   tau(    1) = (    0.50000    0.28868    0.10384  )
        2  Ge     72.6400   tau(    2) = (   -0.00000    0.57735    0.92926  )
        3  Ge     72.6400   tau(    3) = (    0.50000    0.28868    0.72158  )
        4  Ge     72.6400   tau(    4) = (   -0.00000    0.57735    1.54700  )

     Computing dynamical matrix for 
                    q = (   0.0000000   0.0000000   0.0000000 )

     No symmetry!
                                    s                        frac. trans.

      isym =  1     identity                                     

 cryst.   s( 1) = (     1          0          0      )
                  (     0          1          0      )
                  (     0          0          1      )

 cart.    s( 1) = (  1.0000000  0.0000000  0.0000000 )
                  (  0.0000000  1.0000000  0.0000000 )
                  (  0.0000000  0.0000000  1.0000000 )


     G cutoff =  346.9324  (    806 G-vectors)     FFT grid: ( 40, 40, 64)

     number of k points=   500  Marzari-Vanderbilt smearing, width (Ry)=  0.0200
                       cart. coord. in units 2pi/alat
        k(    1) = (   0.0000000   0.0000000   0.0000000), wk =   0.0040000
        k(    2) = (   0.0000000   0.0000000   0.1211504), wk =   0.0040000
        k(    3) = (   0.0000000   0.0000000   0.2423008), wk =   0.0040000
        k(    4) = (   0.0000000   0.0000000  -0.2423008), wk =   0.0040000
        k(    5) = (   0.0000000   0.0000000  -0.1211504), wk =   0.0040000
        k(    6) = (   0.0000000   0.1154701   0.0000000), wk =   0.0040000
        k(    7) = (   0.0000000   0.1154701   0.1211504), wk =   0.0040000
        k(    8) = (   0.0000000   0.1154701   0.2423008), wk =   0.0040000
        k(    9) = (   0.0000000   0.1154701  -0.2423008), wk =   0.0040000
        k(   10) = (   0.0000000   0.1154701  -0.1211504), wk =   0.0040000
        k(   11) = (   0.0000000   0.2309401   0.0000000), wk =   0.0040000
        k(   12) = (   0.0000000   0.2309401   0.1211504), wk =   0.0040000
        k(   13) = (   0.0000000   0.2309401   0.2423008), wk =   0.0040000
        k(   14) = (   0.0000000   0.2309401  -0.2423008), wk =   0.0040000
        k(   15) = (   0.0000000   0.2309401  -0.1211504), wk =   0.0040000
        k(   16) = (   0.0000000   0.3464102   0.0000000), wk =   0.0040000
        k(   17) = (   0.0000000   0.3464102   0.1211504), wk =   0.0040000
        k(   18) = (   0.0000000   0.3464102   0.2423008), wk =   0.0040000
        k(   19) = (   0.0000000   0.3464102  -0.2423008), wk =   0.0040000
        k(   20) = (   0.0000000   0.3464102  -0.1211504), wk =   0.0040000
        k(   21) = (   0.0000000   0.4618802   0.0000000), wk =   0.0040000
        k(   22) = (   0.0000000   0.4618802   0.1211504), wk =   0.0040000
        k(   23) = (   0.0000000   0.4618802   0.2423008), wk =   0.0040000
        k(   24) = (   0.0000000   0.4618802  -0.2423008), wk =   0.0040000
        k(   25) = (   0.0000000   0.4618802  -0.1211504), wk =   0.0040000
        k(   26) = (   0.0000000  -0.5773503   0.0000000), wk =   0.0040000
        k(   27) = (   0.0000000  -0.5773503   0.1211504), wk =   0.0040000
        k(   28) = (   0.0000000  -0.5773503   0.2423008), wk =   0.0040000
        k(   29) = (   0.0000000  -0.5773503  -0.2423008), wk =   0.0040000
        k(   30) = (   0.0000000  -0.5773503  -0.1211504), wk =   0.0040000
        k(   31) = (   0.0000000  -0.4618802   0.0000000), wk =   0.0040000
        k(   32) = (   0.0000000  -0.4618802   0.1211504), wk =   0.0040000
        k(   33) = (   0.0000000  -0.4618802   0.2423008), wk =   0.0040000
        k(   34) = (   0.0000000  -0.4618802  -0.2423008), wk =   0.0040000
        k(   35) = (   0.0000000  -0.4618802  -0.1211504), wk =   0.0040000
        k(   36) = (   0.0000000  -0.3464102   0.0000000), wk =   0.0040000
        k(   37) = (   0.0000000  -0.3464102   0.1211504), wk =   0.0040000
        k(   38) = (   0.0000000  -0.3464102   0.2423008), wk =   0.0040000
        k(   39) = (   0.0000000  -0.3464102  -0.2423008), wk =   0.0040000
        k(   40) = (   0.0000000  -0.3464102  -0.1211504), wk =   0.0040000
        k(   41) = (   0.0000000  -0.2309401   0.0000000), wk =   0.0040000
        k(   42) = (   0.0000000  -0.2309401   0.1211504), wk =   0.0040000
        k(   43) = (   0.0000000  -0.2309401   0.2423008), wk =   0.0040000
        k(   44) = (   0.0000000  -0.2309401  -0.2423008), wk =   0.0040000
        k(   45) = (   0.0000000  -0.2309401  -0.1211504), wk =   0.0040000
        k(   46) = (   0.0000000  -0.1154701   0.0000000), wk =   0.0040000
        k(   47) = (   0.0000000  -0.1154701   0.1211504), wk =   0.0040000
        k(   48) = (   0.0000000  -0.1154701   0.2423008), wk =   0.0040000
        k(   49) = (   0.0000000  -0.1154701  -0.2423008), wk =   0.0040000
        k(   50) = (   0.0000000  -0.1154701  -0.1211504), wk =   0.0040000
        k(   51) = (   0.1000000   0.0577350   0.0000000), wk =   0.0040000
        k(   52) = (   0.1000000   0.0577350   0.1211504), wk =   0.0040000
        k(   53) = (   0.1000000   0.0577350   0.2423008), wk =   0.0040000
        k(   54) = (   0.1000000   0.0577350  -0.2423008), wk =   0.0040000
        k(   55) = (   0.1000000   0.0577350  -0.1211504), wk =   0.0040000
        k(   56) = (   0.1000000   0.1732051   0.0000000), wk =   0.0040000
        k(   57) = (   0.1000000   0.1732051   0.1211504), wk =   0.0040000
        k(   58) = (   0.1000000   0.1732051   0.2423008), wk =   0.0040000
        k(   59) = (   0.1000000   0.1732051  -0.2423008), wk =   0.0040000
        k(   60) = (   0.1000000   0.1732051  -0.1211504), wk =   0.0040000
        k(   61) = (   0.1000000   0.2886751   0.0000000), wk =   0.0040000
        k(   62) = (   0.1000000   0.2886751   0.1211504), wk =   0.0040000
        k(   63) = (   0.1000000   0.2886751   0.2423008), wk =   0.0040000
        k(   64) = (   0.1000000   0.2886751  -0.2423008), wk =   0.0040000
        k(   65) = (   0.1000000   0.2886751  -0.1211504), wk =   0.0040000
        k(   66) = (   0.1000000   0.4041452   0.0000000), wk =   0.0040000
        k(   67) = (   0.1000000   0.4041452   0.1211504), wk =   0.0040000
        k(   68) = (   0.1000000   0.4041452   0.2423008), wk =   0.0040000
        k(   69) = (   0.1000000   0.4041452  -0.2423008), wk =   0.0040000
        k(   70) = (   0.1000000   0.4041452  -0.1211504), wk =   0.0040000
        k(   71) = (   0.1000000   0.5196152   0.0000000), wk =   0.0040000
        k(   72) = (   0.1000000   0.5196152   0.1211504), wk =   0.0040000
        k(   73) = (   0.1000000   0.5196152   0.2423008), wk =   0.0040000
        k(   74) = (   0.1000000   0.5196152  -0.2423008), wk =   0.0040000
        k(   75) = (   0.1000000   0.5196152  -0.1211504), wk =   0.0040000
        k(   76) = (   0.1000000  -0.5196152   0.0000000), wk =   0.0040000
        k(   77) = (   0.1000000  -0.5196152   0.1211504), wk =   0.0040000
        k(   78) = (   0.1000000  -0.5196152   0.2423008), wk =   0.0040000
        k(   79) = (   0.1000000  -0.5196152  -0.2423008), wk =   0.0040000
        k(   80) = (   0.1000000  -0.5196152  -0.1211504), wk =   0.0040000
        k(   81) = (   0.1000000  -0.4041452   0.0000000), wk =   0.0040000
        k(   82) = (   0.1000000  -0.4041452   0.1211504), wk =   0.0040000
        k(   83) = (   0.1000000  -0.4041452   0.2423008), wk =   0.0040000
        k(   84) = (   0.1000000  -0.4041452  -0.2423008), wk =   0.0040000
        k(   85) = (   0.1000000  -0.4041452  -0.1211504), wk =   0.0040000
        k(   86) = (   0.1000000  -0.2886751   0.0000000), wk =   0.0040000
        k(   87) = (   0.1000000  -0.2886751   0.1211504), wk =   0.0040000
        k(   88) = (   0.1000000  -0.2886751   0.2423008), wk =   0.0040000
        k(   89) = (   0.1000000  -0.2886751  -0.2423008), wk =   0.0040000
        k(   90) = (   0.1000000  -0.2886751  -0.1211504), wk =   0.0040000
        k(   91) = (   0.1000000  -0.1732051   0.0000000), wk =   0.0040000
        k(   92) = (   0.1000000  -0.1732051   0.1211504), wk =   0.0040000
        k(   93) = (   0.1000000  -0.1732051   0.2423008), wk =   0.0040000
        k(   94) = (   0.1000000  -0.1732051  -0.2423008), wk =   0.0040000
        k(   95) = (   0.1000000  -0.1732051  -0.1211504), wk =   0.0040000
        k(   96) = (   0.1000000  -0.0577350   0.0000000), wk =   0.0040000
        k(   97) = (   0.1000000  -0.0577350   0.1211504), wk =   0.0040000
        k(   98) = (   0.1000000  -0.0577350   0.2423008), wk =   0.0040000
        k(   99) = (   0.1000000  -0.0577350  -0.2423008), wk =   0.0040000
        k(  100) = (   0.1000000  -0.0577350  -0.1211504), wk =   0.0040000
        k(  101) = (   0.2000000   0.1154701   0.0000000), wk =   0.0040000
        k(  102) = (   0.2000000   0.1154701   0.1211504), wk =   0.0040000
        k(  103) = (   0.2000000   0.1154701   0.2423008), wk =   0.0040000
        k(  104) = (   0.2000000   0.1154701  -0.2423008), wk =   0.0040000
        k(  105) = (   0.2000000   0.1154701  -0.1211504), wk =   0.0040000
        k(  106) = (   0.2000000   0.2309401   0.0000000), wk =   0.0040000
        k(  107) = (   0.2000000   0.2309401   0.1211504), wk =   0.0040000
        k(  108) = (   0.2000000   0.2309401   0.2423008), wk =   0.0040000
        k(  109) = (   0.2000000   0.2309401  -0.2423008), wk =   0.0040000
        k(  110) = (   0.2000000   0.2309401  -0.1211504), wk =   0.0040000
        k(  111) = (   0.2000000   0.3464102   0.0000000), wk =   0.0040000
        k(  112) = (   0.2000000   0.3464102   0.1211504), wk =   0.0040000
        k(  113) = (   0.2000000   0.3464102   0.2423008), wk =   0.0040000
        k(  114) = (   0.2000000   0.3464102  -0.2423008), wk =   0.0040000
        k(  115) = (   0.2000000   0.3464102  -0.1211504), wk =   0.0040000
        k(  116) = (   0.2000000   0.4618802   0.0000000), wk =   0.0040000
        k(  117) = (   0.2000000   0.4618802   0.1211504), wk =   0.0040000
        k(  118) = (   0.2000000   0.4618802   0.2423008), wk =   0.0040000
        k(  119) = (   0.2000000   0.4618802  -0.2423008), wk =   0.0040000
        k(  120) = (   0.2000000   0.4618802  -0.1211504), wk =   0.0040000
        k(  121) = (   0.2000000   0.5773503   0.0000000), wk =   0.0040000
        k(  122) = (   0.2000000   0.5773503   0.1211504), wk =   0.0040000
        k(  123) = (   0.2000000   0.5773503   0.2423008), wk =   0.0040000
        k(  124) = (   0.2000000   0.5773503  -0.2423008), wk =   0.0040000
        k(  125) = (   0.2000000   0.5773503  -0.1211504), wk =   0.0040000
        k(  126) = (   0.2000000  -0.4618802   0.0000000), wk =   0.0040000
        k(  127) = (   0.2000000  -0.4618802   0.1211504), wk =   0.0040000
        k(  128) = (   0.2000000  -0.4618802   0.2423008), wk =   0.0040000
        k(  129) = (   0.2000000  -0.4618802  -0.2423008), wk =   0.0040000
        k(  130) = (   0.2000000  -0.4618802  -0.1211504), wk =   0.0040000
        k(  131) = (   0.2000000  -0.3464102   0.0000000), wk =   0.0040000
        k(  132) = (   0.2000000  -0.3464102   0.1211504), wk =   0.0040000
        k(  133) = (   0.2000000  -0.3464102   0.2423008), wk =   0.0040000
        k(  134) = (   0.2000000  -0.3464102  -0.2423008), wk =   0.0040000
        k(  135) = (   0.2000000  -0.3464102  -0.1211504), wk =   0.0040000
        k(  136) = (   0.2000000  -0.2309401   0.0000000), wk =   0.0040000
        k(  137) = (   0.2000000  -0.2309401   0.1211504), wk =   0.0040000
        k(  138) = (   0.2000000  -0.2309401   0.2423008), wk =   0.0040000
        k(  139) = (   0.2000000  -0.2309401  -0.2423008), wk =   0.0040000
        k(  140) = (   0.2000000  -0.2309401  -0.1211504), wk =   0.0040000
        k(  141) = (   0.2000000  -0.1154701   0.0000000), wk =   0.0040000
        k(  142) = (   0.2000000  -0.1154701   0.1211504), wk =   0.0040000
        k(  143) = (   0.2000000  -0.1154701   0.2423008), wk =   0.0040000
        k(  144) = (   0.2000000  -0.1154701  -0.2423008), wk =   0.0040000
        k(  145) = (   0.2000000  -0.1154701  -0.1211504), wk =   0.0040000
        k(  146) = (   0.2000000   0.0000000   0.0000000), wk =   0.0040000
        k(  147) = (   0.2000000   0.0000000   0.1211504), wk =   0.0040000
        k(  148) = (   0.2000000   0.0000000   0.2423008), wk =   0.0040000
        k(  149) = (   0.2000000   0.0000000  -0.2423008), wk =   0.0040000
        k(  150) = (   0.2000000   0.0000000  -0.1211504), wk =   0.0040000
        k(  151) = (   0.3000000   0.1732051   0.0000000), wk =   0.0040000
        k(  152) = (   0.3000000   0.1732051   0.1211504), wk =   0.0040000
        k(  153) = (   0.3000000   0.1732051   0.2423008), wk =   0.0040000
        k(  154) = (   0.3000000   0.1732051  -0.2423008), wk =   0.0040000
        k(  155) = (   0.3000000   0.1732051  -0.1211504), wk =   0.0040000
        k(  156) = (   0.3000000   0.2886751   0.0000000), wk =   0.0040000
        k(  157) = (   0.3000000   0.2886751   0.1211504), wk =   0.0040000
        k(  158) = (   0.3000000   0.2886751   0.2423008), wk =   0.0040000
        k(  159) = (   0.3000000   0.2886751  -0.2423008), wk =   0.0040000
        k(  160) = (   0.3000000   0.2886751  -0.1211504), wk =   0.0040000
        k(  161) = (   0.3000000   0.4041452   0.0000000), wk =   0.0040000
        k(  162) = (   0.3000000   0.4041452   0.1211504), wk =   0.0040000
        k(  163) = (   0.3000000   0.4041452   0.2423008), wk =   0.0040000
        k(  164) = (   0.3000000   0.4041452  -0.2423008), wk =   0.0040000
        k(  165) = (   0.3000000   0.4041452  -0.1211504), wk =   0.0040000
        k(  166) = (   0.3000000   0.5196152   0.0000000), wk =   0.0040000
        k(  167) = (   0.3000000   0.5196152   0.1211504), wk =   0.0040000
        k(  168) = (   0.3000000   0.5196152   0.2423008), wk =   0.0040000
        k(  169) = (   0.3000000   0.5196152  -0.2423008), wk =   0.0040000
        k(  170) = (   0.3000000   0.5196152  -0.1211504), wk =   0.0040000
        k(  171) = (   0.3000000   0.6350853   0.0000000), wk =   0.0040000
        k(  172) = (   0.3000000   0.6350853   0.1211504), wk =   0.0040000
        k(  173) = (   0.3000000   0.6350853   0.2423008), wk =   0.0040000
        k(  174) = (   0.3000000   0.6350853  -0.2423008), wk =   0.0040000
        k(  175) = (   0.3000000   0.6350853  -0.1211504), wk =   0.0040000
        k(  176) = (   0.3000000  -0.4041452   0.0000000), wk =   0.0040000
        k(  177) = (   0.3000000  -0.4041452   0.1211504), wk =   0.0040000
        k(  178) = (   0.3000000  -0.4041452   0.2423008), wk =   0.0040000
        k(  179) = (   0.3000000  -0.4041452  -0.2423008), wk =   0.0040000
        k(  180) = (   0.3000000  -0.4041452  -0.1211504), wk =   0.0040000
        k(  181) = (   0.3000000  -0.2886751   0.0000000), wk =   0.0040000
        k(  182) = (   0.3000000  -0.2886751   0.1211504), wk =   0.0040000
        k(  183) = (   0.3000000  -0.2886751   0.2423008), wk =   0.0040000
        k(  184) = (   0.3000000  -0.2886751  -0.2423008), wk =   0.0040000
        k(  185) = (   0.3000000  -0.2886751  -0.1211504), wk =   0.0040000
        k(  186) = (   0.3000000  -0.1732051   0.0000000), wk =   0.0040000
        k(  187) = (   0.3000000  -0.1732051   0.1211504), wk =   0.0040000
        k(  188) = (   0.3000000  -0.1732051   0.2423008), wk =   0.0040000
        k(  189) = (   0.3000000  -0.1732051  -0.2423008), wk =   0.0040000
        k(  190) = (   0.3000000  -0.1732051  -0.1211504), wk =   0.0040000
        k(  191) = (   0.3000000  -0.0577350   0.0000000), wk =   0.0040000
        k(  192) = (   0.3000000  -0.0577350   0.1211504), wk =   0.0040000
        k(  193) = (   0.3000000  -0.0577350   0.2423008), wk =   0.0040000
        k(  194) = (   0.3000000  -0.0577350  -0.2423008), wk =   0.0040000
        k(  195) = (   0.3000000  -0.0577350  -0.1211504), wk =   0.0040000
        k(  196) = (   0.3000000   0.0577350   0.0000000), wk =   0.0040000
        k(  197) = (   0.3000000   0.0577350   0.1211504), wk =   0.0040000
        k(  198) = (   0.3000000   0.0577350   0.2423008), wk =   0.0040000
        k(  199) = (   0.3000000   0.0577350  -0.2423008), wk =   0.0040000
        k(  200) = (   0.3000000   0.0577350  -0.1211504), wk =   0.0040000
        k(  201) = (   0.4000000   0.2309401   0.0000000), wk =   0.0040000
        k(  202) = (   0.4000000   0.2309401   0.1211504), wk =   0.0040000
        k(  203) = (   0.4000000   0.2309401   0.2423008), wk =   0.0040000
        k(  204) = (   0.4000000   0.2309401  -0.2423008), wk =   0.0040000
        k(  205) = (   0.4000000   0.2309401  -0.1211504), wk =   0.0040000
        k(  206) = (   0.4000000   0.3464102   0.0000000), wk =   0.0040000
        k(  207) = (   0.4000000   0.3464102   0.1211504), wk =   0.0040000
        k(  208) = (   0.4000000   0.3464102   0.2423008), wk =   0.0040000
        k(  209) = (   0.4000000   0.3464102  -0.2423008), wk =   0.0040000
        k(  210) = (   0.4000000   0.3464102  -0.1211504), wk =   0.0040000
        k(  211) = (   0.4000000   0.4618802   0.0000000), wk =   0.0040000
        k(  212) = (   0.4000000   0.4618802   0.1211504), wk =   0.0040000
        k(  213) = (   0.4000000   0.4618802   0.2423008), wk =   0.0040000
        k(  214) = (   0.4000000   0.4618802  -0.2423008), wk =   0.0040000
        k(  215) = (   0.4000000   0.4618802  -0.1211504), wk =   0.0040000
        k(  216) = (   0.4000000   0.5773503   0.0000000), wk =   0.0040000
        k(  217) = (   0.4000000   0.5773503   0.1211504), wk =   0.0040000
        k(  218) = (   0.4000000   0.5773503   0.2423008), wk =   0.0040000
        k(  219) = (   0.4000000   0.5773503  -0.2423008), wk =   0.0040000
        k(  220) = (   0.4000000   0.5773503  -0.1211504), wk =   0.0040000
        k(  221) = (   0.4000000   0.6928203   0.0000000), wk =   0.0040000
        k(  222) = (   0.4000000   0.6928203   0.1211504), wk =   0.0040000
        k(  223) = (   0.4000000   0.6928203   0.2423008), wk =   0.0040000
        k(  224) = (   0.4000000   0.6928203  -0.2423008), wk =   0.0040000
        k(  225) = (   0.4000000   0.6928203  -0.1211504), wk =   0.0040000
        k(  226) = (   0.4000000  -0.3464102   0.0000000), wk =   0.0040000
        k(  227) = (   0.4000000  -0.3464102   0.1211504), wk =   0.0040000
        k(  228) = (   0.4000000  -0.3464102   0.2423008), wk =   0.0040000
        k(  229) = (   0.4000000  -0.3464102  -0.2423008), wk =   0.0040000
        k(  230) = (   0.4000000  -0.3464102  -0.1211504), wk =   0.0040000
        k(  231) = (   0.4000000  -0.2309401   0.0000000), wk =   0.0040000
        k(  232) = (   0.4000000  -0.2309401   0.1211504), wk =   0.0040000
        k(  233) = (   0.4000000  -0.2309401   0.2423008), wk =   0.0040000
        k(  234) = (   0.4000000  -0.2309401  -0.2423008), wk =   0.0040000
        k(  235) = (   0.4000000  -0.2309401  -0.1211504), wk =   0.0040000
        k(  236) = (   0.4000000  -0.1154701   0.0000000), wk =   0.0040000
        k(  237) = (   0.4000000  -0.1154701   0.1211504), wk =   0.0040000
        k(  238) = (   0.4000000  -0.1154701   0.2423008), wk =   0.0040000
        k(  239) = (   0.4000000  -0.1154701  -0.2423008), wk =   0.0040000
        k(  240) = (   0.4000000  -0.1154701  -0.1211504), wk =   0.0040000
        k(  241) = (   0.4000000   0.0000000   0.0000000), wk =   0.0040000
        k(  242) = (   0.4000000   0.0000000   0.1211504), wk =   0.0040000
        k(  243) = (   0.4000000   0.0000000   0.2423008), wk =   0.0040000
        k(  244) = (   0.4000000   0.0000000  -0.2423008), wk =   0.0040000
        k(  245) = (   0.4000000   0.0000000  -0.1211504), wk =   0.0040000
        k(  246) = (   0.4000000   0.1154701   0.0000000), wk =   0.0040000
        k(  247) = (   0.4000000   0.1154701   0.1211504), wk =   0.0040000
        k(  248) = (   0.4000000   0.1154701   0.2423008), wk =   0.0040000
        k(  249) = (   0.4000000   0.1154701  -0.2423008), wk =   0.0040000
        k(  250) = (   0.4000000   0.1154701  -0.1211504), wk =   0.0040000
        k(  251) = (  -0.5000000  -0.2886751   0.0000000), wk =   0.0040000
        k(  252) = (  -0.5000000  -0.2886751   0.1211504), wk =   0.0040000
        k(  253) = (  -0.5000000  -0.2886751   0.2423008), wk =   0.0040000
        k(  254) = (  -0.5000000  -0.2886751  -0.2423008), wk =   0.0040000
        k(  255) = (  -0.5000000  -0.2886751  -0.1211504), wk =   0.0040000
        k(  256) = (  -0.5000000  -0.1732051   0.0000000), wk =   0.0040000
        k(  257) = (  -0.5000000  -0.1732051   0.1211504), wk =   0.0040000
        k(  258) = (  -0.5000000  -0.1732051   0.2423008), wk =   0.0040000
        k(  259) = (  -0.5000000  -0.1732051  -0.2423008), wk =   0.0040000
        k(  260) = (  -0.5000000  -0.1732051  -0.1211504), wk =   0.0040000
        k(  261) = (  -0.5000000  -0.0577350   0.0000000), wk =   0.0040000
        k(  262) = (  -0.5000000  -0.0577350   0.1211504), wk =   0.0040000
        k(  263) = (  -0.5000000  -0.0577350   0.2423008), wk =   0.0040000
        k(  264) = (  -0.5000000  -0.0577350  -0.2423008), wk =   0.0040000
        k(  265) = (  -0.5000000  -0.0577350  -0.1211504), wk =   0.0040000
        k(  266) = (  -0.5000000   0.0577350   0.0000000), wk =   0.0040000
        k(  267) = (  -0.5000000   0.0577350   0.1211504), wk =   0.0040000
        k(  268) = (  -0.5000000   0.0577350   0.2423008), wk =   0.0040000
        k(  269) = (  -0.5000000   0.0577350  -0.2423008), wk =   0.0040000
        k(  270) = (  -0.5000000   0.0577350  -0.1211504), wk =   0.0040000
        k(  271) = (  -0.5000000   0.1732051   0.0000000), wk =   0.0040000
        k(  272) = (  -0.5000000   0.1732051   0.1211504), wk =   0.0040000
        k(  273) = (  -0.5000000   0.1732051   0.2423008), wk =   0.0040000
        k(  274) = (  -0.5000000   0.1732051  -0.2423008), wk =   0.0040000
        k(  275) = (  -0.5000000   0.1732051  -0.1211504), wk =   0.0040000
        k(  276) = (  -0.5000000  -0.8660254   0.0000000), wk =   0.0040000
        k(  277) = (  -0.5000000  -0.8660254   0.1211504), wk =   0.0040000
        k(  278) = (  -0.5000000  -0.8660254   0.2423008), wk =   0.0040000
        k(  279) = (  -0.5000000  -0.8660254  -0.2423008), wk =   0.0040000
        k(  280) = (  -0.5000000  -0.8660254  -0.1211504), wk =   0.0040000
        k(  281) = (  -0.5000000  -0.7505553   0.0000000), wk =   0.0040000
        k(  282) = (  -0.5000000  -0.7505553   0.1211504), wk =   0.0040000
        k(  283) = (  -0.5000000  -0.7505553   0.2423008), wk =   0.0040000
        k(  284) = (  -0.5000000  -0.7505553  -0.2423008), wk =   0.0040000
        k(  285) = (  -0.5000000  -0.7505553  -0.1211504), wk =   0.0040000
        k(  286) = (  -0.5000000  -0.6350853   0.0000000), wk =   0.0040000
        k(  287) = (  -0.5000000  -0.6350853   0.1211504), wk =   0.0040000
        k(  288) = (  -0.5000000  -0.6350853   0.2423008), wk =   0.0040000
        k(  289) = (  -0.5000000  -0.6350853  -0.2423008), wk =   0.0040000
        k(  290) = (  -0.5000000  -0.6350853  -0.1211504), wk =   0.0040000
        k(  291) = (  -0.5000000  -0.5196152   0.0000000), wk =   0.0040000
        k(  292) = (  -0.5000000  -0.5196152   0.1211504), wk =   0.0040000
        k(  293) = (  -0.5000000  -0.5196152   0.2423008), wk =   0.0040000
        k(  294) = (  -0.5000000  -0.5196152  -0.2423008), wk =   0.0040000
        k(  295) = (  -0.5000000  -0.5196152  -0.1211504), wk =   0.0040000
        k(  296) = (  -0.5000000  -0.4041452   0.0000000), wk =   0.0040000
        k(  297) = (  -0.5000000  -0.4041452   0.1211504), wk =   0.0040000
        k(  298) = (  -0.5000000  -0.4041452   0.2423008), wk =   0.0040000
        k(  299) = (  -0.5000000  -0.4041452  -0.2423008), wk =   0.0040000
        k(  300) = (  -0.5000000  -0.4041452  -0.1211504), wk =   0.0040000
        k(  301) = (  -0.4000000  -0.2309401   0.0000000), wk =   0.0040000
        k(  302) = (  -0.4000000  -0.2309401   0.1211504), wk =   0.0040000
        k(  303) = (  -0.4000000  -0.2309401   0.2423008), wk =   0.0040000
        k(  304) = (  -0.4000000  -0.2309401  -0.2423008), wk =   0.0040000
        k(  305) = (  -0.4000000  -0.2309401  -0.1211504), wk =   0.0040000
        k(  306) = (  -0.4000000  -0.1154701   0.0000000), wk =   0.0040000
        k(  307) = (  -0.4000000  -0.1154701   0.1211504), wk =   0.0040000
        k(  308) = (  -0.4000000  -0.1154701   0.2423008), wk =   0.0040000
        k(  309) = (  -0.4000000  -0.1154701  -0.2423008), wk =   0.0040000
        k(  310) = (  -0.4000000  -0.1154701  -0.1211504), wk =   0.0040000
        k(  311) = (  -0.4000000   0.0000000   0.0000000), wk =   0.0040000
        k(  312) = (  -0.4000000   0.0000000   0.1211504), wk =   0.0040000
        k(  313) = (  -0.4000000   0.0000000   0.2423008), wk =   0.0040000
        k(  314) = (  -0.4000000   0.0000000  -0.2423008), wk =   0.0040000
        k(  315) = (  -0.4000000   0.0000000  -0.1211504), wk =   0.0040000
        k(  316) = (  -0.4000000   0.1154701   0.0000000), wk =   0.0040000
        k(  317) = (  -0.4000000   0.1154701   0.1211504), wk =   0.0040000
        k(  318) = (  -0.4000000   0.1154701   0.2423008), wk =   0.0040000
        k(  319) = (  -0.4000000   0.1154701  -0.2423008), wk =   0.0040000
        k(  320) = (  -0.4000000   0.1154701  -0.1211504), wk =   0.0040000
        k(  321) = (  -0.4000000   0.2309401   0.0000000), wk =   0.0040000
        k(  322) = (  -0.4000000   0.2309401   0.1211504), wk =   0.0040000
        k(  323) = (  -0.4000000   0.2309401   0.2423008), wk =   0.0040000
        k(  324) = (  -0.4000000   0.2309401  -0.2423008), wk =   0.0040000
        k(  325) = (  -0.4000000   0.2309401  -0.1211504), wk =   0.0040000
        k(  326) = (  -0.4000000  -0.8082904   0.0000000), wk =   0.0040000
        k(  327) = (  -0.4000000  -0.8082904   0.1211504), wk =   0.0040000
        k(  328) = (  -0.4000000  -0.8082904   0.2423008), wk =   0.0040000
        k(  329) = (  -0.4000000  -0.8082904  -0.2423008), wk =   0.0040000
        k(  330) = (  -0.4000000  -0.8082904  -0.1211504), wk =   0.0040000
        k(  331) = (  -0.4000000  -0.6928203   0.0000000), wk =   0.0040000
        k(  332) = (  -0.4000000  -0.6928203   0.1211504), wk =   0.0040000
        k(  333) = (  -0.4000000  -0.6928203   0.2423008), wk =   0.0040000
        k(  334) = (  -0.4000000  -0.6928203  -0.2423008), wk =   0.0040000
        k(  335) = (  -0.4000000  -0.6928203  -0.1211504), wk =   0.0040000
        k(  336) = (  -0.4000000  -0.5773503   0.0000000), wk =   0.0040000
        k(  337) = (  -0.4000000  -0.5773503   0.1211504), wk =   0.0040000
        k(  338) = (  -0.4000000  -0.5773503   0.2423008), wk =   0.0040000
        k(  339) = (  -0.4000000  -0.5773503  -0.2423008), wk =   0.0040000
        k(  340) = (  -0.4000000  -0.5773503  -0.1211504), wk =   0.0040000
        k(  341) = (  -0.4000000  -0.4618802   0.0000000), wk =   0.0040000
        k(  342) = (  -0.4000000  -0.4618802   0.1211504), wk =   0.0040000
        k(  343) = (  -0.4000000  -0.4618802   0.2423008), wk =   0.0040000
        k(  344) = (  -0.4000000  -0.4618802  -0.2423008), wk =   0.0040000
        k(  345) = (  -0.4000000  -0.4618802  -0.1211504), wk =   0.0040000
        k(  346) = (  -0.4000000  -0.3464102   0.0000000), wk =   0.0040000
        k(  347) = (  -0.4000000  -0.3464102   0.1211504), wk =   0.0040000
        k(  348) = (  -0.4000000  -0.3464102   0.2423008), wk =   0.0040000
        k(  349) = (  -0.4000000  -0.3464102  -0.2423008), wk =   0.0040000
        k(  350) = (  -0.4000000  -0.3464102  -0.1211504), wk =   0.0040000
        k(  351) = (  -0.3000000  -0.1732051   0.0000000), wk =   0.0040000
        k(  352) = (  -0.3000000  -0.1732051   0.1211504), wk =   0.0040000
        k(  353) = (  -0.3000000  -0.1732051   0.2423008), wk =   0.0040000
        k(  354) = (  -0.3000000  -0.1732051  -0.2423008), wk =   0.0040000
        k(  355) = (  -0.3000000  -0.1732051  -0.1211504), wk =   0.0040000
        k(  356) = (  -0.3000000  -0.0577350   0.0000000), wk =   0.0040000
        k(  357) = (  -0.3000000  -0.0577350   0.1211504), wk =   0.0040000
        k(  358) = (  -0.3000000  -0.0577350   0.2423008), wk =   0.0040000
        k(  359) = (  -0.3000000  -0.0577350  -0.2423008), wk =   0.0040000
        k(  360) = (  -0.3000000  -0.0577350  -0.1211504), wk =   0.0040000
        k(  361) = (  -0.3000000   0.0577350   0.0000000), wk =   0.0040000
        k(  362) = (  -0.3000000   0.0577350   0.1211504), wk =   0.0040000
        k(  363) = (  -0.3000000   0.0577350   0.2423008), wk =   0.0040000
        k(  364) = (  -0.3000000   0.0577350  -0.2423008), wk =   0.0040000
        k(  365) = (  -0.3000000   0.0577350  -0.1211504), wk =   0.0040000
        k(  366) = (  -0.3000000   0.1732051   0.0000000), wk =   0.0040000
        k(  367) = (  -0.3000000   0.1732051   0.1211504), wk =   0.0040000
        k(  368) = (  -0.3000000   0.1732051   0.2423008), wk =   0.0040000
        k(  369) = (  -0.3000000   0.1732051  -0.2423008), wk =   0.0040000
        k(  370) = (  -0.3000000   0.1732051  -0.1211504), wk =   0.0040000
        k(  371) = (  -0.3000000   0.2886751   0.0000000), wk =   0.0040000
        k(  372) = (  -0.3000000   0.2886751   0.1211504), wk =   0.0040000
        k(  373) = (  -0.3000000   0.2886751   0.2423008), wk =   0.0040000
        k(  374) = (  -0.3000000   0.2886751  -0.2423008), wk =   0.0040000
        k(  375) = (  -0.3000000   0.2886751  -0.1211504), wk =   0.0040000
        k(  376) = (  -0.3000000  -0.7505553   0.0000000), wk =   0.0040000
        k(  377) = (  -0.3000000  -0.7505553   0.1211504), wk =   0.0040000
        k(  378) = (  -0.3000000  -0.7505553   0.2423008), wk =   0.0040000
        k(  379) = (  -0.3000000  -0.7505553  -0.2423008), wk =   0.0040000
        k(  380) = (  -0.3000000  -0.7505553  -0.1211504), wk =   0.0040000
        k(  381) = (  -0.3000000  -0.6350853   0.0000000), wk =   0.0040000
        k(  382) = (  -0.3000000  -0.6350853   0.1211504), wk =   0.0040000
        k(  383) = (  -0.3000000  -0.6350853   0.2423008), wk =   0.0040000
        k(  384) = (  -0.3000000  -0.6350853  -0.2423008), wk =   0.0040000
        k(  385) = (  -0.3000000  -0.6350853  -0.1211504), wk =   0.0040000
        k(  386) = (  -0.3000000  -0.5196152   0.0000000), wk =   0.0040000
        k(  387) = (  -0.3000000  -0.5196152   0.1211504), wk =   0.0040000
        k(  388) = (  -0.3000000  -0.5196152   0.2423008), wk =   0.0040000
        k(  389) = (  -0.3000000  -0.5196152  -0.2423008), wk =   0.0040000
        k(  390) = (  -0.3000000  -0.5196152  -0.1211504), wk =   0.0040000
        k(  391) = (  -0.3000000  -0.4041452   0.0000000), wk =   0.0040000
        k(  392) = (  -0.3000000  -0.4041452   0.1211504), wk =   0.0040000
        k(  393) = (  -0.3000000  -0.4041452   0.2423008), wk =   0.0040000
        k(  394) = (  -0.3000000  -0.4041452  -0.2423008), wk =   0.0040000
        k(  395) = (  -0.3000000  -0.4041452  -0.1211504), wk =   0.0040000
        k(  396) = (  -0.3000000  -0.2886751   0.0000000), wk =   0.0040000
        k(  397) = (  -0.3000000  -0.2886751   0.1211504), wk =   0.0040000
        k(  398) = (  -0.3000000  -0.2886751   0.2423008), wk =   0.0040000
        k(  399) = (  -0.3000000  -0.2886751  -0.2423008), wk =   0.0040000
        k(  400) = (  -0.3000000  -0.2886751  -0.1211504), wk =   0.0040000
        k(  401) = (  -0.2000000  -0.1154701   0.0000000), wk =   0.0040000
        k(  402) = (  -0.2000000  -0.1154701   0.1211504), wk =   0.0040000
        k(  403) = (  -0.2000000  -0.1154701   0.2423008), wk =   0.0040000
        k(  404) = (  -0.2000000  -0.1154701  -0.2423008), wk =   0.0040000
        k(  405) = (  -0.2000000  -0.1154701  -0.1211504), wk =   0.0040000
        k(  406) = (  -0.2000000   0.0000000   0.0000000), wk =   0.0040000
        k(  407) = (  -0.2000000   0.0000000   0.1211504), wk =   0.0040000
        k(  408) = (  -0.2000000   0.0000000   0.2423008), wk =   0.0040000
        k(  409) = (  -0.2000000   0.0000000  -0.2423008), wk =   0.0040000
        k(  410) = (  -0.2000000   0.0000000  -0.1211504), wk =   0.0040000
        k(  411) = (  -0.2000000   0.1154701   0.0000000), wk =   0.0040000
        k(  412) = (  -0.2000000   0.1154701   0.1211504), wk =   0.0040000
        k(  413) = (  -0.2000000   0.1154701   0.2423008), wk =   0.0040000
        k(  414) = (  -0.2000000   0.1154701  -0.2423008), wk =   0.0040000
        k(  415) = (  -0.2000000   0.1154701  -0.1211504), wk =   0.0040000
        k(  416) = (  -0.2000000   0.2309401   0.0000000), wk =   0.0040000
        k(  417) = (  -0.2000000   0.2309401   0.1211504), wk =   0.0040000
        k(  418) = (  -0.2000000   0.2309401   0.2423008), wk =   0.0040000
        k(  419) = (  -0.2000000   0.2309401  -0.2423008), wk =   0.0040000
        k(  420) = (  -0.2000000   0.2309401  -0.1211504), wk =   0.0040000
        k(  421) = (  -0.2000000   0.3464102   0.0000000), wk =   0.0040000
        k(  422) = (  -0.2000000   0.3464102   0.1211504), wk =   0.0040000
        k(  423) = (  -0.2000000   0.3464102   0.2423008), wk =   0.0040000
        k(  424) = (  -0.2000000   0.3464102  -0.2423008), wk =   0.0040000
        k(  425) = (  -0.2000000   0.3464102  -0.1211504), wk =   0.0040000
        k(  426) = (  -0.2000000  -0.6928203   0.0000000), wk =   0.0040000
        k(  427) = (  -0.2000000  -0.6928203   0.1211504), wk =   0.0040000
        k(  428) = (  -0.2000000  -0.6928203   0.2423008), wk =   0.0040000
        k(  429) = (  -0.2000000  -0.6928203  -0.2423008), wk =   0.0040000
        k(  430) = (  -0.2000000  -0.6928203  -0.1211504), wk =   0.0040000
        k(  431) = (  -0.2000000  -0.5773503   0.0000000), wk =   0.0040000
        k(  432) = (  -0.2000000  -0.5773503   0.1211504), wk =   0.0040000
        k(  433) = (  -0.2000000  -0.5773503   0.2423008), wk =   0.0040000
        k(  434) = (  -0.2000000  -0.5773503  -0.2423008), wk =   0.0040000
        k(  435) = (  -0.2000000  -0.5773503  -0.1211504), wk =   0.0040000
        k(  436) = (  -0.2000000  -0.4618802   0.0000000), wk =   0.0040000
        k(  437) = (  -0.2000000  -0.4618802   0.1211504), wk =   0.0040000
        k(  438) = (  -0.2000000  -0.4618802   0.2423008), wk =   0.0040000
        k(  439) = (  -0.2000000  -0.4618802  -0.2423008), wk =   0.0040000
        k(  440) = (  -0.2000000  -0.4618802  -0.1211504), wk =   0.0040000
        k(  441) = (  -0.2000000  -0.3464102   0.0000000), wk =   0.0040000
        k(  442) = (  -0.2000000  -0.3464102   0.1211504), wk =   0.0040000
        k(  443) = (  -0.2000000  -0.3464102   0.2423008), wk =   0.0040000
        k(  444) = (  -0.2000000  -0.3464102  -0.2423008), wk =   0.0040000
        k(  445) = (  -0.2000000  -0.3464102  -0.1211504), wk =   0.0040000
        k(  446) = (  -0.2000000  -0.2309401   0.0000000), wk =   0.0040000
        k(  447) = (  -0.2000000  -0.2309401   0.1211504), wk =   0.0040000
        k(  448) = (  -0.2000000  -0.2309401   0.2423008), wk =   0.0040000
        k(  449) = (  -0.2000000  -0.2309401  -0.2423008), wk =   0.0040000
        k(  450) = (  -0.2000000  -0.2309401  -0.1211504), wk =   0.0040000
        k(  451) = (  -0.1000000  -0.0577350   0.0000000), wk =   0.0040000
        k(  452) = (  -0.1000000  -0.0577350   0.1211504), wk =   0.0040000
        k(  453) = (  -0.1000000  -0.0577350   0.2423008), wk =   0.0040000
        k(  454) = (  -0.1000000  -0.0577350  -0.2423008), wk =   0.0040000
        k(  455) = (  -0.1000000  -0.0577350  -0.1211504), wk =   0.0040000
        k(  456) = (  -0.1000000   0.0577350   0.0000000), wk =   0.0040000
        k(  457) = (  -0.1000000   0.0577350   0.1211504), wk =   0.0040000
        k(  458) = (  -0.1000000   0.0577350   0.2423008), wk =   0.0040000
        k(  459) = (  -0.1000000   0.0577350  -0.2423008), wk =   0.0040000
        k(  460) = (  -0.1000000   0.0577350  -0.1211504), wk =   0.0040000
        k(  461) = (  -0.1000000   0.1732051   0.0000000), wk =   0.0040000
        k(  462) = (  -0.1000000   0.1732051   0.1211504), wk =   0.0040000
        k(  463) = (  -0.1000000   0.1732051   0.2423008), wk =   0.0040000
        k(  464) = (  -0.1000000   0.1732051  -0.2423008), wk =   0.0040000
        k(  465) = (  -0.1000000   0.1732051  -0.1211504), wk =   0.0040000
        k(  466) = (  -0.1000000   0.2886751   0.0000000), wk =   0.0040000
        k(  467) = (  -0.1000000   0.2886751   0.1211504), wk =   0.0040000
        k(  468) = (  -0.1000000   0.2886751   0.2423008), wk =   0.0040000
        k(  469) = (  -0.1000000   0.2886751  -0.2423008), wk =   0.0040000
        k(  470) = (  -0.1000000   0.2886751  -0.1211504), wk =   0.0040000
        k(  471) = (  -0.1000000   0.4041452   0.0000000), wk =   0.0040000
        k(  472) = (  -0.1000000   0.4041452   0.1211504), wk =   0.0040000
        k(  473) = (  -0.1000000   0.4041452   0.2423008), wk =   0.0040000
        k(  474) = (  -0.1000000   0.4041452  -0.2423008), wk =   0.0040000
        k(  475) = (  -0.1000000   0.4041452  -0.1211504), wk =   0.0040000
        k(  476) = (  -0.1000000  -0.6350853   0.0000000), wk =   0.0040000
        k(  477) = (  -0.1000000  -0.6350853   0.1211504), wk =   0.0040000
        k(  478) = (  -0.1000000  -0.6350853   0.2423008), wk =   0.0040000
        k(  479) = (  -0.1000000  -0.6350853  -0.2423008), wk =   0.0040000
        k(  480) = (  -0.1000000  -0.6350853  -0.1211504), wk =   0.0040000
        k(  481) = (  -0.1000000  -0.5196152   0.0000000), wk =   0.0040000
        k(  482) = (  -0.1000000  -0.5196152   0.1211504), wk =   0.0040000
        k(  483) = (  -0.1000000  -0.5196152   0.2423008), wk =   0.0040000
        k(  484) = (  -0.1000000  -0.5196152  -0.2423008), wk =   0.0040000
        k(  485) = (  -0.1000000  -0.5196152  -0.1211504), wk =   0.0040000
        k(  486) = (  -0.1000000  -0.4041452   0.0000000), wk =   0.0040000
        k(  487) = (  -0.1000000  -0.4041452   0.1211504), wk =   0.0040000
        k(  488) = (  -0.1000000  -0.4041452   0.2423008), wk =   0.0040000
        k(  489) = (  -0.1000000  -0.4041452  -0.2423008), wk =   0.0040000
        k(  490) = (  -0.1000000  -0.4041452  -0.1211504), wk =   0.0040000
        k(  491) = (  -0.1000000  -0.2886751   0.0000000), wk =   0.0040000
        k(  492) = (  -0.1000000  -0.2886751   0.1211504), wk =   0.0040000
        k(  493) = (  -0.1000000  -0.2886751   0.2423008), wk =   0.0040000
        k(  494) = (  -0.1000000  -0.2886751  -0.2423008), wk =   0.0040000
        k(  495) = (  -0.1000000  -0.2886751  -0.1211504), wk =   0.0040000
        k(  496) = (  -0.1000000  -0.1732051   0.0000000), wk =   0.0040000
        k(  497) = (  -0.1000000  -0.1732051   0.1211504), wk =   0.0040000
        k(  498) = (  -0.1000000  -0.1732051   0.2423008), wk =   0.0040000
        k(  499) = (  -0.1000000  -0.1732051  -0.2423008), wk =   0.0040000
        k(  500) = (  -0.1000000  -0.1732051  -0.1211504), wk =   0.0040000

                       cryst. coord.
        k(    1) = (   0.0000000   0.0000000   0.0000000), wk =   0.0040000
        k(    2) = (   0.0000000   0.0000000   0.2000000), wk =   0.0040000
        k(    3) = (   0.0000000   0.0000000   0.4000000), wk =   0.0040000
        k(    4) = (   0.0000000   0.0000000  -0.4000000), wk =   0.0040000
        k(    5) = (   0.0000000   0.0000000  -0.2000000), wk =   0.0040000
        k(    6) = (   0.0000000   0.1000000   0.0000000), wk =   0.0040000
        k(    7) = (   0.0000000   0.1000000   0.2000000), wk =   0.0040000
        k(    8) = (   0.0000000   0.1000000   0.4000000), wk =   0.0040000
        k(    9) = (   0.0000000   0.1000000  -0.4000000), wk =   0.0040000
        k(   10) = (   0.0000000   0.1000000  -0.2000000), wk =   0.0040000
        k(   11) = (   0.0000000   0.2000000   0.0000000), wk =   0.0040000
        k(   12) = (   0.0000000   0.2000000   0.2000000), wk =   0.0040000
        k(   13) = (   0.0000000   0.2000000   0.4000000), wk =   0.0040000
        k(   14) = (   0.0000000   0.2000000  -0.4000000), wk =   0.0040000
        k(   15) = (   0.0000000   0.2000000  -0.2000000), wk =   0.0040000
        k(   16) = (   0.0000000   0.3000000   0.0000000), wk =   0.0040000
        k(   17) = (   0.0000000   0.3000000   0.2000000), wk =   0.0040000
        k(   18) = (   0.0000000   0.3000000   0.4000000), wk =   0.0040000
        k(   19) = (   0.0000000   0.3000000  -0.4000000), wk =   0.0040000
        k(   20) = (   0.0000000   0.3000000  -0.2000000), wk =   0.0040000
        k(   21) = (   0.0000000   0.4000000   0.0000000), wk =   0.0040000
        k(   22) = (   0.0000000   0.4000000   0.2000000), wk =   0.0040000
        k(   23) = (   0.0000000   0.4000000   0.4000000), wk =   0.0040000
        k(   24) = (   0.0000000   0.4000000  -0.4000000), wk =   0.0040000
        k(   25) = (   0.0000000   0.4000000  -0.2000000), wk =   0.0040000
        k(   26) = (   0.0000000  -0.5000000   0.0000000), wk =   0.0040000
        k(   27) = (   0.0000000  -0.5000000   0.2000000), wk =   0.0040000
        k(   28) = (   0.0000000  -0.5000000   0.4000000), wk =   0.0040000
        k(   29) = (   0.0000000  -0.5000000  -0.4000000), wk =   0.0040000
        k(   30) = (   0.0000000  -0.5000000  -0.2000000), wk =   0.0040000
        k(   31) = (   0.0000000  -0.4000000   0.0000000), wk =   0.0040000
        k(   32) = (   0.0000000  -0.4000000   0.2000000), wk =   0.0040000
        k(   33) = (   0.0000000  -0.4000000   0.4000000), wk =   0.0040000
        k(   34) = (   0.0000000  -0.4000000  -0.4000000), wk =   0.0040000
        k(   35) = (   0.0000000  -0.4000000  -0.2000000), wk =   0.0040000
        k(   36) = (   0.0000000  -0.3000000   0.0000000), wk =   0.0040000
        k(   37) = (   0.0000000  -0.3000000   0.2000000), wk =   0.0040000
        k(   38) = (   0.0000000  -0.3000000   0.4000000), wk =   0.0040000
        k(   39) = (   0.0000000  -0.3000000  -0.4000000), wk =   0.0040000
        k(   40) = (   0.0000000  -0.3000000  -0.2000000), wk =   0.0040000
        k(   41) = (   0.0000000  -0.2000000   0.0000000), wk =   0.0040000
        k(   42) = (   0.0000000  -0.2000000   0.2000000), wk =   0.0040000
        k(   43) = (   0.0000000  -0.2000000   0.4000000), wk =   0.0040000
        k(   44) = (   0.0000000  -0.2000000  -0.4000000), wk =   0.0040000
        k(   45) = (   0.0000000  -0.2000000  -0.2000000), wk =   0.0040000
        k(   46) = (   0.0000000  -0.1000000   0.0000000), wk =   0.0040000
        k(   47) = (   0.0000000  -0.1000000   0.2000000), wk =   0.0040000
        k(   48) = (   0.0000000  -0.1000000   0.4000000), wk =   0.0040000
        k(   49) = (   0.0000000  -0.1000000  -0.4000000), wk =   0.0040000
        k(   50) = (   0.0000000  -0.1000000  -0.2000000), wk =   0.0040000
        k(   51) = (   0.1000000   0.0000000   0.0000000), wk =   0.0040000
        k(   52) = (   0.1000000   0.0000000   0.2000000), wk =   0.0040000
        k(   53) = (   0.1000000   0.0000000   0.4000000), wk =   0.0040000
        k(   54) = (   0.1000000   0.0000000  -0.4000000), wk =   0.0040000
        k(   55) = (   0.1000000   0.0000000  -0.2000000), wk =   0.0040000
        k(   56) = (   0.1000000   0.1000000   0.0000000), wk =   0.0040000
        k(   57) = (   0.1000000   0.1000000   0.2000000), wk =   0.0040000
        k(   58) = (   0.1000000   0.1000000   0.4000000), wk =   0.0040000
        k(   59) = (   0.1000000   0.1000000  -0.4000000), wk =   0.0040000
        k(   60) = (   0.1000000   0.1000000  -0.2000000), wk =   0.0040000
        k(   61) = (   0.1000000   0.2000000   0.0000000), wk =   0.0040000
        k(   62) = (   0.1000000   0.2000000   0.2000000), wk =   0.0040000
        k(   63) = (   0.1000000   0.2000000   0.4000000), wk =   0.0040000
        k(   64) = (   0.1000000   0.2000000  -0.4000000), wk =   0.0040000
        k(   65) = (   0.1000000   0.2000000  -0.2000000), wk =   0.0040000
        k(   66) = (   0.1000000   0.3000000   0.0000000), wk =   0.0040000
        k(   67) = (   0.1000000   0.3000000   0.2000000), wk =   0.0040000
        k(   68) = (   0.1000000   0.3000000   0.4000000), wk =   0.0040000
        k(   69) = (   0.1000000   0.3000000  -0.4000000), wk =   0.0040000
        k(   70) = (   0.1000000   0.3000000  -0.2000000), wk =   0.0040000
        k(   71) = (   0.1000000   0.4000000   0.0000000), wk =   0.0040000
        k(   72) = (   0.1000000   0.4000000   0.2000000), wk =   0.0040000
        k(   73) = (   0.1000000   0.4000000   0.4000000), wk =   0.0040000
        k(   74) = (   0.1000000   0.4000000  -0.4000000), wk =   0.0040000
        k(   75) = (   0.1000000   0.4000000  -0.2000000), wk =   0.0040000
        k(   76) = (   0.1000000  -0.5000000   0.0000000), wk =   0.0040000
        k(   77) = (   0.1000000  -0.5000000   0.2000000), wk =   0.0040000
        k(   78) = (   0.1000000  -0.5000000   0.4000000), wk =   0.0040000
        k(   79) = (   0.1000000  -0.5000000  -0.4000000), wk =   0.0040000
        k(   80) = (   0.1000000  -0.5000000  -0.2000000), wk =   0.0040000
        k(   81) = (   0.1000000  -0.4000000   0.0000000), wk =   0.0040000
        k(   82) = (   0.1000000  -0.4000000   0.2000000), wk =   0.0040000
        k(   83) = (   0.1000000  -0.4000000   0.4000000), wk =   0.0040000
        k(   84) = (   0.1000000  -0.4000000  -0.4000000), wk =   0.0040000
        k(   85) = (   0.1000000  -0.4000000  -0.2000000), wk =   0.0040000
        k(   86) = (   0.1000000  -0.3000000   0.0000000), wk =   0.0040000
        k(   87) = (   0.1000000  -0.3000000   0.2000000), wk =   0.0040000
        k(   88) = (   0.1000000  -0.3000000   0.4000000), wk =   0.0040000
        k(   89) = (   0.1000000  -0.3000000  -0.4000000), wk =   0.0040000
        k(   90) = (   0.1000000  -0.3000000  -0.2000000), wk =   0.0040000
        k(   91) = (   0.1000000  -0.2000000   0.0000000), wk =   0.0040000
        k(   92) = (   0.1000000  -0.2000000   0.2000000), wk =   0.0040000
        k(   93) = (   0.1000000  -0.2000000   0.4000000), wk =   0.0040000
        k(   94) = (   0.1000000  -0.2000000  -0.4000000), wk =   0.0040000
        k(   95) = (   0.1000000  -0.2000000  -0.2000000), wk =   0.0040000
        k(   96) = (   0.1000000  -0.1000000   0.0000000), wk =   0.0040000
        k(   97) = (   0.1000000  -0.1000000   0.2000000), wk =   0.0040000
        k(   98) = (   0.1000000  -0.1000000   0.4000000), wk =   0.0040000
        k(   99) = (   0.1000000  -0.1000000  -0.4000000), wk =   0.0040000
        k(  100) = (   0.1000000  -0.1000000  -0.2000000), wk =   0.0040000
        k(  101) = (   0.2000000   0.0000000   0.0000000), wk =   0.0040000
        k(  102) = (   0.2000000   0.0000000   0.2000000), wk =   0.0040000
        k(  103) = (   0.2000000   0.0000000   0.4000000), wk =   0.0040000
        k(  104) = (   0.2000000   0.0000000  -0.4000000), wk =   0.0040000
        k(  105) = (   0.2000000   0.0000000  -0.2000000), wk =   0.0040000
        k(  106) = (   0.2000000   0.1000000   0.0000000), wk =   0.0040000
        k(  107) = (   0.2000000   0.1000000   0.2000000), wk =   0.0040000
        k(  108) = (   0.2000000   0.1000000   0.4000000), wk =   0.0040000
        k(  109) = (   0.2000000   0.1000000  -0.4000000), wk =   0.0040000
        k(  110) = (   0.2000000   0.1000000  -0.2000000), wk =   0.0040000
        k(  111) = (   0.2000000   0.2000000   0.0000000), wk =   0.0040000
        k(  112) = (   0.2000000   0.2000000   0.2000000), wk =   0.0040000
        k(  113) = (   0.2000000   0.2000000   0.4000000), wk =   0.0040000
        k(  114) = (   0.2000000   0.2000000  -0.4000000), wk =   0.0040000
        k(  115) = (   0.2000000   0.2000000  -0.2000000), wk =   0.0040000
        k(  116) = (   0.2000000   0.3000000   0.0000000), wk =   0.0040000
        k(  117) = (   0.2000000   0.3000000   0.2000000), wk =   0.0040000
        k(  118) = (   0.2000000   0.3000000   0.4000000), wk =   0.0040000
        k(  119) = (   0.2000000   0.3000000  -0.4000000), wk =   0.0040000
        k(  120) = (   0.2000000   0.3000000  -0.2000000), wk =   0.0040000
        k(  121) = (   0.2000000   0.4000000   0.0000000), wk =   0.0040000
        k(  122) = (   0.2000000   0.4000000   0.2000000), wk =   0.0040000
        k(  123) = (   0.2000000   0.4000000   0.4000000), wk =   0.0040000
        k(  124) = (   0.2000000   0.4000000  -0.4000000), wk =   0.0040000
        k(  125) = (   0.2000000   0.4000000  -0.2000000), wk =   0.0040000
        k(  126) = (   0.2000000  -0.5000000   0.0000000), wk =   0.0040000
        k(  127) = (   0.2000000  -0.5000000   0.2000000), wk =   0.0040000
        k(  128) = (   0.2000000  -0.5000000   0.4000000), wk =   0.0040000
        k(  129) = (   0.2000000  -0.5000000  -0.4000000), wk =   0.0040000
        k(  130) = (   0.2000000  -0.5000000  -0.2000000), wk =   0.0040000
        k(  131) = (   0.2000000  -0.4000000   0.0000000), wk =   0.0040000
        k(  132) = (   0.2000000  -0.4000000   0.2000000), wk =   0.0040000
        k(  133) = (   0.2000000  -0.4000000   0.4000000), wk =   0.0040000
        k(  134) = (   0.2000000  -0.4000000  -0.4000000), wk =   0.0040000
        k(  135) = (   0.2000000  -0.4000000  -0.2000000), wk =   0.0040000
        k(  136) = (   0.2000000  -0.3000000   0.0000000), wk =   0.0040000
        k(  137) = (   0.2000000  -0.3000000   0.2000000), wk =   0.0040000
        k(  138) = (   0.2000000  -0.3000000   0.4000000), wk =   0.0040000
        k(  139) = (   0.2000000  -0.3000000  -0.4000000), wk =   0.0040000
        k(  140) = (   0.2000000  -0.3000000  -0.2000000), wk =   0.0040000
        k(  141) = (   0.2000000  -0.2000000   0.0000000), wk =   0.0040000
        k(  142) = (   0.2000000  -0.2000000   0.2000000), wk =   0.0040000
        k(  143) = (   0.2000000  -0.2000000   0.4000000), wk =   0.0040000
        k(  144) = (   0.2000000  -0.2000000  -0.4000000), wk =   0.0040000
        k(  145) = (   0.2000000  -0.2000000  -0.2000000), wk =   0.0040000
        k(  146) = (   0.2000000  -0.1000000   0.0000000), wk =   0.0040000
        k(  147) = (   0.2000000  -0.1000000   0.2000000), wk =   0.0040000
        k(  148) = (   0.2000000  -0.1000000   0.4000000), wk =   0.0040000
        k(  149) = (   0.2000000  -0.1000000  -0.4000000), wk =   0.0040000
        k(  150) = (   0.2000000  -0.1000000  -0.2000000), wk =   0.0040000
        k(  151) = (   0.3000000   0.0000000   0.0000000), wk =   0.0040000
        k(  152) = (   0.3000000   0.0000000   0.2000000), wk =   0.0040000
        k(  153) = (   0.3000000   0.0000000   0.4000000), wk =   0.0040000
        k(  154) = (   0.3000000   0.0000000  -0.4000000), wk =   0.0040000
        k(  155) = (   0.3000000   0.0000000  -0.2000000), wk =   0.0040000
        k(  156) = (   0.3000000   0.1000000   0.0000000), wk =   0.0040000
        k(  157) = (   0.3000000   0.1000000   0.2000000), wk =   0.0040000
        k(  158) = (   0.3000000   0.1000000   0.4000000), wk =   0.0040000
        k(  159) = (   0.3000000   0.1000000  -0.4000000), wk =   0.0040000
        k(  160) = (   0.3000000   0.1000000  -0.2000000), wk =   0.0040000
        k(  161) = (   0.3000000   0.2000000   0.0000000), wk =   0.0040000
        k(  162) = (   0.3000000   0.2000000   0.2000000), wk =   0.0040000
        k(  163) = (   0.3000000   0.2000000   0.4000000), wk =   0.0040000
        k(  164) = (   0.3000000   0.2000000  -0.4000000), wk =   0.0040000
        k(  165) = (   0.3000000   0.2000000  -0.2000000), wk =   0.0040000
        k(  166) = (   0.3000000   0.3000000   0.0000000), wk =   0.0040000
        k(  167) = (   0.3000000   0.3000000   0.2000000), wk =   0.0040000
        k(  168) = (   0.3000000   0.3000000   0.4000000), wk =   0.0040000
        k(  169) = (   0.3000000   0.3000000  -0.4000000), wk =   0.0040000
        k(  170) = (   0.3000000   0.3000000  -0.2000000), wk =   0.0040000
        k(  171) = (   0.3000000   0.4000000   0.0000000), wk =   0.0040000
        k(  172) = (   0.3000000   0.4000000   0.2000000), wk =   0.0040000
        k(  173) = (   0.3000000   0.4000000   0.4000000), wk =   0.0040000
        k(  174) = (   0.3000000   0.4000000  -0.4000000), wk =   0.0040000
        k(  175) = (   0.3000000   0.4000000  -0.2000000), wk =   0.0040000
        k(  176) = (   0.3000000  -0.5000000   0.0000000), wk =   0.0040000
        k(  177) = (   0.3000000  -0.5000000   0.2000000), wk =   0.0040000
        k(  178) = (   0.3000000  -0.5000000   0.4000000), wk =   0.0040000
        k(  179) = (   0.3000000  -0.5000000  -0.4000000), wk =   0.0040000
        k(  180) = (   0.3000000  -0.5000000  -0.2000000), wk =   0.0040000
        k(  181) = (   0.3000000  -0.4000000   0.0000000), wk =   0.0040000
        k(  182) = (   0.3000000  -0.4000000   0.2000000), wk =   0.0040000
        k(  183) = (   0.3000000  -0.4000000   0.4000000), wk =   0.0040000
        k(  184) = (   0.3000000  -0.4000000  -0.4000000), wk =   0.0040000
        k(  185) = (   0.3000000  -0.4000000  -0.2000000), wk =   0.0040000
        k(  186) = (   0.3000000  -0.3000000   0.0000000), wk =   0.0040000
        k(  187) = (   0.3000000  -0.3000000   0.2000000), wk =   0.0040000
        k(  188) = (   0.3000000  -0.3000000   0.4000000), wk =   0.0040000
        k(  189) = (   0.3000000  -0.3000000  -0.4000000), wk =   0.0040000
        k(  190) = (   0.3000000  -0.3000000  -0.2000000), wk =   0.0040000
        k(  191) = (   0.3000000  -0.2000000   0.0000000), wk =   0.0040000
        k(  192) = (   0.3000000  -0.2000000   0.2000000), wk =   0.0040000
        k(  193) = (   0.3000000  -0.2000000   0.4000000), wk =   0.0040000
        k(  194) = (   0.3000000  -0.2000000  -0.4000000), wk =   0.0040000
        k(  195) = (   0.3000000  -0.2000000  -0.2000000), wk =   0.0040000
        k(  196) = (   0.3000000  -0.1000000   0.0000000), wk =   0.0040000
        k(  197) = (   0.3000000  -0.1000000   0.2000000), wk =   0.0040000
        k(  198) = (   0.3000000  -0.1000000   0.4000000), wk =   0.0040000
        k(  199) = (   0.3000000  -0.1000000  -0.4000000), wk =   0.0040000
        k(  200) = (   0.3000000  -0.1000000  -0.2000000), wk =   0.0040000
        k(  201) = (   0.4000000   0.0000000   0.0000000), wk =   0.0040000
        k(  202) = (   0.4000000   0.0000000   0.2000000), wk =   0.0040000
        k(  203) = (   0.4000000   0.0000000   0.4000000), wk =   0.0040000
        k(  204) = (   0.4000000   0.0000000  -0.4000000), wk =   0.0040000
        k(  205) = (   0.4000000   0.0000000  -0.2000000), wk =   0.0040000
        k(  206) = (   0.4000000   0.1000000   0.0000000), wk =   0.0040000
        k(  207) = (   0.4000000   0.1000000   0.2000000), wk =   0.0040000
        k(  208) = (   0.4000000   0.1000000   0.4000000), wk =   0.0040000
        k(  209) = (   0.4000000   0.1000000  -0.4000000), wk =   0.0040000
        k(  210) = (   0.4000000   0.1000000  -0.2000000), wk =   0.0040000
        k(  211) = (   0.4000000   0.2000000   0.0000000), wk =   0.0040000
        k(  212) = (   0.4000000   0.2000000   0.2000000), wk =   0.0040000
        k(  213) = (   0.4000000   0.2000000   0.4000000), wk =   0.0040000
        k(  214) = (   0.4000000   0.2000000  -0.4000000), wk =   0.0040000
        k(  215) = (   0.4000000   0.2000000  -0.2000000), wk =   0.0040000
        k(  216) = (   0.4000000   0.3000000   0.0000000), wk =   0.0040000
        k(  217) = (   0.4000000   0.3000000   0.2000000), wk =   0.0040000
        k(  218) = (   0.4000000   0.3000000   0.4000000), wk =   0.0040000
        k(  219) = (   0.4000000   0.3000000  -0.4000000), wk =   0.0040000
        k(  220) = (   0.4000000   0.3000000  -0.2000000), wk =   0.0040000
        k(  221) = (   0.4000000   0.4000000   0.0000000), wk =   0.0040000
        k(  222) = (   0.4000000   0.4000000   0.2000000), wk =   0.0040000
        k(  223) = (   0.4000000   0.4000000   0.4000000), wk =   0.0040000
        k(  224) = (   0.4000000   0.4000000  -0.4000000), wk =   0.0040000
        k(  225) = (   0.4000000   0.4000000  -0.2000000), wk =   0.0040000
        k(  226) = (   0.4000000  -0.5000000   0.0000000), wk =   0.0040000
        k(  227) = (   0.4000000  -0.5000000   0.2000000), wk =   0.0040000
        k(  228) = (   0.4000000  -0.5000000   0.4000000), wk =   0.0040000
        k(  229) = (   0.4000000  -0.5000000  -0.4000000), wk =   0.0040000
        k(  230) = (   0.4000000  -0.5000000  -0.2000000), wk =   0.0040000
        k(  231) = (   0.4000000  -0.4000000   0.0000000), wk =   0.0040000
        k(  232) = (   0.4000000  -0.4000000   0.2000000), wk =   0.0040000
        k(  233) = (   0.4000000  -0.4000000   0.4000000), wk =   0.0040000
        k(  234) = (   0.4000000  -0.4000000  -0.4000000), wk =   0.0040000
        k(  235) = (   0.4000000  -0.4000000  -0.2000000), wk =   0.0040000
        k(  236) = (   0.4000000  -0.3000000   0.0000000), wk =   0.0040000
        k(  237) = (   0.4000000  -0.3000000   0.2000000), wk =   0.0040000
        k(  238) = (   0.4000000  -0.3000000   0.4000000), wk =   0.0040000
        k(  239) = (   0.4000000  -0.3000000  -0.4000000), wk =   0.0040000
        k(  240) = (   0.4000000  -0.3000000  -0.2000000), wk =   0.0040000
        k(  241) = (   0.4000000  -0.2000000   0.0000000), wk =   0.0040000
        k(  242) = (   0.4000000  -0.2000000   0.2000000), wk =   0.0040000
        k(  243) = (   0.4000000  -0.2000000   0.4000000), wk =   0.0040000
        k(  244) = (   0.4000000  -0.2000000  -0.4000000), wk =   0.0040000
        k(  245) = (   0.4000000  -0.2000000  -0.2000000), wk =   0.0040000
        k(  246) = (   0.4000000  -0.1000000   0.0000000), wk =   0.0040000
        k(  247) = (   0.4000000  -0.1000000   0.2000000), wk =   0.0040000
        k(  248) = (   0.4000000  -0.1000000   0.4000000), wk =   0.0040000
        k(  249) = (   0.4000000  -0.1000000  -0.4000000), wk =   0.0040000
        k(  250) = (   0.4000000  -0.1000000  -0.2000000), wk =   0.0040000
        k(  251) = (  -0.5000000  -0.0000000   0.0000000), wk =   0.0040000
        k(  252) = (  -0.5000000  -0.0000000   0.2000000), wk =   0.0040000
        k(  253) = (  -0.5000000  -0.0000000   0.4000000), wk =   0.0040000
        k(  254) = (  -0.5000000  -0.0000000  -0.4000000), wk =   0.0040000
        k(  255) = (  -0.5000000  -0.0000000  -0.2000000), wk =   0.0040000
        k(  256) = (  -0.5000000   0.1000000   0.0000000), wk =   0.0040000
        k(  257) = (  -0.5000000   0.1000000   0.2000000), wk =   0.0040000
        k(  258) = (  -0.5000000   0.1000000   0.4000000), wk =   0.0040000
        k(  259) = (  -0.5000000   0.1000000  -0.4000000), wk =   0.0040000
        k(  260) = (  -0.5000000   0.1000000  -0.2000000), wk =   0.0040000
        k(  261) = (  -0.5000000   0.2000000   0.0000000), wk =   0.0040000
        k(  262) = (  -0.5000000   0.2000000   0.2000000), wk =   0.0040000
        k(  263) = (  -0.5000000   0.2000000   0.4000000), wk =   0.0040000
        k(  264) = (  -0.5000000   0.2000000  -0.4000000), wk =   0.0040000
        k(  265) = (  -0.5000000   0.2000000  -0.2000000), wk =   0.0040000
        k(  266) = (  -0.5000000   0.3000000   0.0000000), wk =   0.0040000
        k(  267) = (  -0.5000000   0.3000000   0.2000000), wk =   0.0040000
        k(  268) = (  -0.5000000   0.3000000   0.4000000), wk =   0.0040000
        k(  269) = (  -0.5000000   0.3000000  -0.4000000), wk =   0.0040000
        k(  270) = (  -0.5000000   0.3000000  -0.2000000), wk =   0.0040000
        k(  271) = (  -0.5000000   0.4000000   0.0000000), wk =   0.0040000
        k(  272) = (  -0.5000000   0.4000000   0.2000000), wk =   0.0040000
        k(  273) = (  -0.5000000   0.4000000   0.4000000), wk =   0.0040000
        k(  274) = (  -0.5000000   0.4000000  -0.4000000), wk =   0.0040000
        k(  275) = (  -0.5000000   0.4000000  -0.2000000), wk =   0.0040000
        k(  276) = (  -0.5000000  -0.5000000   0.0000000), wk =   0.0040000
        k(  277) = (  -0.5000000  -0.5000000   0.2000000), wk =   0.0040000
        k(  278) = (  -0.5000000  -0.5000000   0.4000000), wk =   0.0040000
        k(  279) = (  -0.5000000  -0.5000000  -0.4000000), wk =   0.0040000
        k(  280) = (  -0.5000000  -0.5000000  -0.2000000), wk =   0.0040000
        k(  281) = (  -0.5000000  -0.4000000   0.0000000), wk =   0.0040000
        k(  282) = (  -0.5000000  -0.4000000   0.2000000), wk =   0.0040000
        k(  283) = (  -0.5000000  -0.4000000   0.4000000), wk =   0.0040000
        k(  284) = (  -0.5000000  -0.4000000  -0.4000000), wk =   0.0040000
        k(  285) = (  -0.5000000  -0.4000000  -0.2000000), wk =   0.0040000
        k(  286) = (  -0.5000000  -0.3000000   0.0000000), wk =   0.0040000
        k(  287) = (  -0.5000000  -0.3000000   0.2000000), wk =   0.0040000
        k(  288) = (  -0.5000000  -0.3000000   0.4000000), wk =   0.0040000
        k(  289) = (  -0.5000000  -0.3000000  -0.4000000), wk =   0.0040000
        k(  290) = (  -0.5000000  -0.3000000  -0.2000000), wk =   0.0040000
        k(  291) = (  -0.5000000  -0.2000000   0.0000000), wk =   0.0040000
        k(  292) = (  -0.5000000  -0.2000000   0.2000000), wk =   0.0040000
        k(  293) = (  -0.5000000  -0.2000000   0.4000000), wk =   0.0040000
        k(  294) = (  -0.5000000  -0.2000000  -0.4000000), wk =   0.0040000
        k(  295) = (  -0.5000000  -0.2000000  -0.2000000), wk =   0.0040000
        k(  296) = (  -0.5000000  -0.1000000   0.0000000), wk =   0.0040000
        k(  297) = (  -0.5000000  -0.1000000   0.2000000), wk =   0.0040000
        k(  298) = (  -0.5000000  -0.1000000   0.4000000), wk =   0.0040000
        k(  299) = (  -0.5000000  -0.1000000  -0.4000000), wk =   0.0040000
        k(  300) = (  -0.5000000  -0.1000000  -0.2000000), wk =   0.0040000
        k(  301) = (  -0.4000000   0.0000000   0.0000000), wk =   0.0040000
        k(  302) = (  -0.4000000   0.0000000   0.2000000), wk =   0.0040000
        k(  303) = (  -0.4000000   0.0000000   0.4000000), wk =   0.0040000
        k(  304) = (  -0.4000000   0.0000000  -0.4000000), wk =   0.0040000
        k(  305) = (  -0.4000000   0.0000000  -0.2000000), wk =   0.0040000
        k(  306) = (  -0.4000000   0.1000000   0.0000000), wk =   0.0040000
        k(  307) = (  -0.4000000   0.1000000   0.2000000), wk =   0.0040000
        k(  308) = (  -0.4000000   0.1000000   0.4000000), wk =   0.0040000
        k(  309) = (  -0.4000000   0.1000000  -0.4000000), wk =   0.0040000
        k(  310) = (  -0.4000000   0.1000000  -0.2000000), wk =   0.0040000
        k(  311) = (  -0.4000000   0.2000000   0.0000000), wk =   0.0040000
        k(  312) = (  -0.4000000   0.2000000   0.2000000), wk =   0.0040000
        k(  313) = (  -0.4000000   0.2000000   0.4000000), wk =   0.0040000
        k(  314) = (  -0.4000000   0.2000000  -0.4000000), wk =   0.0040000
        k(  315) = (  -0.4000000   0.2000000  -0.2000000), wk =   0.0040000
        k(  316) = (  -0.4000000   0.3000000   0.0000000), wk =   0.0040000
        k(  317) = (  -0.4000000   0.3000000   0.2000000), wk =   0.0040000
        k(  318) = (  -0.4000000   0.3000000   0.4000000), wk =   0.0040000
        k(  319) = (  -0.4000000   0.3000000  -0.4000000), wk =   0.0040000
        k(  320) = (  -0.4000000   0.3000000  -0.2000000), wk =   0.0040000
        k(  321) = (  -0.4000000   0.4000000   0.0000000), wk =   0.0040000
        k(  322) = (  -0.4000000   0.4000000   0.2000000), wk =   0.0040000
        k(  323) = (  -0.4000000   0.4000000   0.4000000), wk =   0.0040000
        k(  324) = (  -0.4000000   0.4000000  -0.4000000), wk =   0.0040000
        k(  325) = (  -0.4000000   0.4000000  -0.2000000), wk =   0.0040000
        k(  326) = (  -0.4000000  -0.5000000   0.0000000), wk =   0.0040000
        k(  327) = (  -0.4000000  -0.5000000   0.2000000), wk =   0.0040000
        k(  328) = (  -0.4000000  -0.5000000   0.4000000), wk =   0.0040000
        k(  329) = (  -0.4000000  -0.5000000  -0.4000000), wk =   0.0040000
        k(  330) = (  -0.4000000  -0.5000000  -0.2000000), wk =   0.0040000
        k(  331) = (  -0.4000000  -0.4000000   0.0000000), wk =   0.0040000
        k(  332) = (  -0.4000000  -0.4000000   0.2000000), wk =   0.0040000
        k(  333) = (  -0.4000000  -0.4000000   0.4000000), wk =   0.0040000
        k(  334) = (  -0.4000000  -0.4000000  -0.4000000), wk =   0.0040000
        k(  335) = (  -0.4000000  -0.4000000  -0.2000000), wk =   0.0040000
        k(  336) = (  -0.4000000  -0.3000000   0.0000000), wk =   0.0040000
        k(  337) = (  -0.4000000  -0.3000000   0.2000000), wk =   0.0040000
        k(  338) = (  -0.4000000  -0.3000000   0.4000000), wk =   0.0040000
        k(  339) = (  -0.4000000  -0.3000000  -0.4000000), wk =   0.0040000
        k(  340) = (  -0.4000000  -0.3000000  -0.2000000), wk =   0.0040000
        k(  341) = (  -0.4000000  -0.2000000   0.0000000), wk =   0.0040000
        k(  342) = (  -0.4000000  -0.2000000   0.2000000), wk =   0.0040000
        k(  343) = (  -0.4000000  -0.2000000   0.4000000), wk =   0.0040000
        k(  344) = (  -0.4000000  -0.2000000  -0.4000000), wk =   0.0040000
        k(  345) = (  -0.4000000  -0.2000000  -0.2000000), wk =   0.0040000
        k(  346) = (  -0.4000000  -0.1000000   0.0000000), wk =   0.0040000
        k(  347) = (  -0.4000000  -0.1000000   0.2000000), wk =   0.0040000
        k(  348) = (  -0.4000000  -0.1000000   0.4000000), wk =   0.0040000
        k(  349) = (  -0.4000000  -0.1000000  -0.4000000), wk =   0.0040000
        k(  350) = (  -0.4000000  -0.1000000  -0.2000000), wk =   0.0040000
        k(  351) = (  -0.3000000  -0.0000000   0.0000000), wk =   0.0040000
        k(  352) = (  -0.3000000  -0.0000000   0.2000000), wk =   0.0040000
        k(  353) = (  -0.3000000  -0.0000000   0.4000000), wk =   0.0040000
        k(  354) = (  -0.3000000  -0.0000000  -0.4000000), wk =   0.0040000
        k(  355) = (  -0.3000000  -0.0000000  -0.2000000), wk =   0.0040000
        k(  356) = (  -0.3000000   0.1000000   0.0000000), wk =   0.0040000
        k(  357) = (  -0.3000000   0.1000000   0.2000000), wk =   0.0040000
        k(  358) = (  -0.3000000   0.1000000   0.4000000), wk =   0.0040000
        k(  359) = (  -0.3000000   0.1000000  -0.4000000), wk =   0.0040000
        k(  360) = (  -0.3000000   0.1000000  -0.2000000), wk =   0.0040000
        k(  361) = (  -0.3000000   0.2000000   0.0000000), wk =   0.0040000
        k(  362) = (  -0.3000000   0.2000000   0.2000000), wk =   0.0040000
        k(  363) = (  -0.3000000   0.2000000   0.4000000), wk =   0.0040000
        k(  364) = (  -0.3000000   0.2000000  -0.4000000), wk =   0.0040000
        k(  365) = (  -0.3000000   0.2000000  -0.2000000), wk =   0.0040000
        k(  366) = (  -0.3000000   0.3000000   0.0000000), wk =   0.0040000
        k(  367) = (  -0.3000000   0.3000000   0.2000000), wk =   0.0040000
        k(  368) = (  -0.3000000   0.3000000   0.4000000), wk =   0.0040000
        k(  369) = (  -0.3000000   0.3000000  -0.4000000), wk =   0.0040000
        k(  370) = (  -0.3000000   0.3000000  -0.2000000), wk =   0.0040000
        k(  371) = (  -0.3000000   0.4000000   0.0000000), wk =   0.0040000
        k(  372) = (  -0.3000000   0.4000000   0.2000000), wk =   0.0040000
        k(  373) = (  -0.3000000   0.4000000   0.4000000), wk =   0.0040000
        k(  374) = (  -0.3000000   0.4000000  -0.4000000), wk =   0.0040000
        k(  375) = (  -0.3000000   0.4000000  -0.2000000), wk =   0.0040000
        k(  376) = (  -0.3000000  -0.5000000   0.0000000), wk =   0.0040000
        k(  377) = (  -0.3000000  -0.5000000   0.2000000), wk =   0.0040000
        k(  378) = (  -0.3000000  -0.5000000   0.4000000), wk =   0.0040000
        k(  379) = (  -0.3000000  -0.5000000  -0.4000000), wk =   0.0040000
        k(  380) = (  -0.3000000  -0.5000000  -0.2000000), wk =   0.0040000
        k(  381) = (  -0.3000000  -0.4000000   0.0000000), wk =   0.0040000
        k(  382) = (  -0.3000000  -0.4000000   0.2000000), wk =   0.0040000
        k(  383) = (  -0.3000000  -0.4000000   0.4000000), wk =   0.0040000
        k(  384) = (  -0.3000000  -0.4000000  -0.4000000), wk =   0.0040000
        k(  385) = (  -0.3000000  -0.4000000  -0.2000000), wk =   0.0040000
        k(  386) = (  -0.3000000  -0.3000000   0.0000000), wk =   0.0040000
        k(  387) = (  -0.3000000  -0.3000000   0.2000000), wk =   0.0040000
        k(  388) = (  -0.3000000  -0.3000000   0.4000000), wk =   0.0040000
        k(  389) = (  -0.3000000  -0.3000000  -0.4000000), wk =   0.0040000
        k(  390) = (  -0.3000000  -0.3000000  -0.2000000), wk =   0.0040000
        k(  391) = (  -0.3000000  -0.2000000   0.0000000), wk =   0.0040000
        k(  392) = (  -0.3000000  -0.2000000   0.2000000), wk =   0.0040000
        k(  393) = (  -0.3000000  -0.2000000   0.4000000), wk =   0.0040000
        k(  394) = (  -0.3000000  -0.2000000  -0.4000000), wk =   0.0040000
        k(  395) = (  -0.3000000  -0.2000000  -0.2000000), wk =   0.0040000
        k(  396) = (  -0.3000000  -0.1000000   0.0000000), wk =   0.0040000
        k(  397) = (  -0.3000000  -0.1000000   0.2000000), wk =   0.0040000
        k(  398) = (  -0.3000000  -0.1000000   0.4000000), wk =   0.0040000
        k(  399) = (  -0.3000000  -0.1000000  -0.4000000), wk =   0.0040000
        k(  400) = (  -0.3000000  -0.1000000  -0.2000000), wk =   0.0040000
        k(  401) = (  -0.2000000   0.0000000   0.0000000), wk =   0.0040000
        k(  402) = (  -0.2000000   0.0000000   0.2000000), wk =   0.0040000
        k(  403) = (  -0.2000000   0.0000000   0.4000000), wk =   0.0040000
        k(  404) = (  -0.2000000   0.0000000  -0.4000000), wk =   0.0040000
        k(  405) = (  -0.2000000   0.0000000  -0.2000000), wk =   0.0040000
        k(  406) = (  -0.2000000   0.1000000   0.0000000), wk =   0.0040000
        k(  407) = (  -0.2000000   0.1000000   0.2000000), wk =   0.0040000
        k(  408) = (  -0.2000000   0.1000000   0.4000000), wk =   0.0040000
        k(  409) = (  -0.2000000   0.1000000  -0.4000000), wk =   0.0040000
        k(  410) = (  -0.2000000   0.1000000  -0.2000000), wk =   0.0040000
        k(  411) = (  -0.2000000   0.2000000   0.0000000), wk =   0.0040000
        k(  412) = (  -0.2000000   0.2000000   0.2000000), wk =   0.0040000
        k(  413) = (  -0.2000000   0.2000000   0.4000000), wk =   0.0040000
        k(  414) = (  -0.2000000   0.2000000  -0.4000000), wk =   0.0040000
        k(  415) = (  -0.2000000   0.2000000  -0.2000000), wk =   0.0040000
        k(  416) = (  -0.2000000   0.3000000   0.0000000), wk =   0.0040000
        k(  417) = (  -0.2000000   0.3000000   0.2000000), wk =   0.0040000
        k(  418) = (  -0.2000000   0.3000000   0.4000000), wk =   0.0040000
        k(  419) = (  -0.2000000   0.3000000  -0.4000000), wk =   0.0040000
        k(  420) = (  -0.2000000   0.3000000  -0.2000000), wk =   0.0040000
        k(  421) = (  -0.2000000   0.4000000   0.0000000), wk =   0.0040000
        k(  422) = (  -0.2000000   0.4000000   0.2000000), wk =   0.0040000
        k(  423) = (  -0.2000000   0.4000000   0.4000000), wk =   0.0040000
        k(  424) = (  -0.2000000   0.4000000  -0.4000000), wk =   0.0040000
        k(  425) = (  -0.2000000   0.4000000  -0.2000000), wk =   0.0040000
        k(  426) = (  -0.2000000  -0.5000000   0.0000000), wk =   0.0040000
        k(  427) = (  -0.2000000  -0.5000000   0.2000000), wk =   0.0040000
        k(  428) = (  -0.2000000  -0.5000000   0.4000000), wk =   0.0040000
        k(  429) = (  -0.2000000  -0.5000000  -0.4000000), wk =   0.0040000
        k(  430) = (  -0.2000000  -0.5000000  -0.2000000), wk =   0.0040000
        k(  431) = (  -0.2000000  -0.4000000   0.0000000), wk =   0.0040000
        k(  432) = (  -0.2000000  -0.4000000   0.2000000), wk =   0.0040000
        k(  433) = (  -0.2000000  -0.4000000   0.4000000), wk =   0.0040000
        k(  434) = (  -0.2000000  -0.4000000  -0.4000000), wk =   0.0040000
        k(  435) = (  -0.2000000  -0.4000000  -0.2000000), wk =   0.0040000
        k(  436) = (  -0.2000000  -0.3000000   0.0000000), wk =   0.0040000
        k(  437) = (  -0.2000000  -0.3000000   0.2000000), wk =   0.0040000
        k(  438) = (  -0.2000000  -0.3000000   0.4000000), wk =   0.0040000
        k(  439) = (  -0.2000000  -0.3000000  -0.4000000), wk =   0.0040000
        k(  440) = (  -0.2000000  -0.3000000  -0.2000000), wk =   0.0040000
        k(  441) = (  -0.2000000  -0.2000000   0.0000000), wk =   0.0040000
        k(  442) = (  -0.2000000  -0.2000000   0.2000000), wk =   0.0040000
        k(  443) = (  -0.2000000  -0.2000000   0.4000000), wk =   0.0040000
        k(  444) = (  -0.2000000  -0.2000000  -0.4000000), wk =   0.0040000
        k(  445) = (  -0.2000000  -0.2000000  -0.2000000), wk =   0.0040000
        k(  446) = (  -0.2000000  -0.1000000   0.0000000), wk =   0.0040000
        k(  447) = (  -0.2000000  -0.1000000   0.2000000), wk =   0.0040000
        k(  448) = (  -0.2000000  -0.1000000   0.4000000), wk =   0.0040000
        k(  449) = (  -0.2000000  -0.1000000  -0.4000000), wk =   0.0040000
        k(  450) = (  -0.2000000  -0.1000000  -0.2000000), wk =   0.0040000
        k(  451) = (  -0.1000000  -0.0000000   0.0000000), wk =   0.0040000
        k(  452) = (  -0.1000000  -0.0000000   0.2000000), wk =   0.0040000
        k(  453) = (  -0.1000000  -0.0000000   0.4000000), wk =   0.0040000
        k(  454) = (  -0.1000000  -0.0000000  -0.4000000), wk =   0.0040000
        k(  455) = (  -0.1000000  -0.0000000  -0.2000000), wk =   0.0040000
        k(  456) = (  -0.1000000   0.1000000   0.0000000), wk =   0.0040000
        k(  457) = (  -0.1000000   0.1000000   0.2000000), wk =   0.0040000
        k(  458) = (  -0.1000000   0.1000000   0.4000000), wk =   0.0040000
        k(  459) = (  -0.1000000   0.1000000  -0.4000000), wk =   0.0040000
        k(  460) = (  -0.1000000   0.1000000  -0.2000000), wk =   0.0040000
        k(  461) = (  -0.1000000   0.2000000   0.0000000), wk =   0.0040000
        k(  462) = (  -0.1000000   0.2000000   0.2000000), wk =   0.0040000
        k(  463) = (  -0.1000000   0.2000000   0.4000000), wk =   0.0040000
        k(  464) = (  -0.1000000   0.2000000  -0.4000000), wk =   0.0040000
        k(  465) = (  -0.1000000   0.2000000  -0.2000000), wk =   0.0040000
        k(  466) = (  -0.1000000   0.3000000   0.0000000), wk =   0.0040000
        k(  467) = (  -0.1000000   0.3000000   0.2000000), wk =   0.0040000
        k(  468) = (  -0.1000000   0.3000000   0.4000000), wk =   0.0040000
        k(  469) = (  -0.1000000   0.3000000  -0.4000000), wk =   0.0040000
        k(  470) = (  -0.1000000   0.3000000  -0.2000000), wk =   0.0040000
        k(  471) = (  -0.1000000   0.4000000   0.0000000), wk =   0.0040000
        k(  472) = (  -0.1000000   0.4000000   0.2000000), wk =   0.0040000
        k(  473) = (  -0.1000000   0.4000000   0.4000000), wk =   0.0040000
        k(  474) = (  -0.1000000   0.4000000  -0.4000000), wk =   0.0040000
        k(  475) = (  -0.1000000   0.4000000  -0.2000000), wk =   0.0040000
        k(  476) = (  -0.1000000  -0.5000000   0.0000000), wk =   0.0040000
        k(  477) = (  -0.1000000  -0.5000000   0.2000000), wk =   0.0040000
        k(  478) = (  -0.1000000  -0.5000000   0.4000000), wk =   0.0040000
        k(  479) = (  -0.1000000  -0.5000000  -0.4000000), wk =   0.0040000
        k(  480) = (  -0.1000000  -0.5000000  -0.2000000), wk =   0.0040000
        k(  481) = (  -0.1000000  -0.4000000   0.0000000), wk =   0.0040000
        k(  482) = (  -0.1000000  -0.4000000   0.2000000), wk =   0.0040000
        k(  483) = (  -0.1000000  -0.4000000   0.4000000), wk =   0.0040000
        k(  484) = (  -0.1000000  -0.4000000  -0.4000000), wk =   0.0040000
        k(  485) = (  -0.1000000  -0.4000000  -0.2000000), wk =   0.0040000
        k(  486) = (  -0.1000000  -0.3000000   0.0000000), wk =   0.0040000
        k(  487) = (  -0.1000000  -0.3000000   0.2000000), wk =   0.0040000
        k(  488) = (  -0.1000000  -0.3000000   0.4000000), wk =   0.0040000
        k(  489) = (  -0.1000000  -0.3000000  -0.4000000), wk =   0.0040000
        k(  490) = (  -0.1000000  -0.3000000  -0.2000000), wk =   0.0040000
        k(  491) = (  -0.1000000  -0.2000000   0.0000000), wk =   0.0040000
        k(  492) = (  -0.1000000  -0.2000000   0.2000000), wk =   0.0040000
        k(  493) = (  -0.1000000  -0.2000000   0.4000000), wk =   0.0040000
[...]

     Convergence has been achieved 


     Representation #   2 mode #   2

     Self-consistent Calculation

     Pert. #  1: Fermi energy shift (Ry) =    -1.7938E-04     8.5256E-11

      iter #   1 total cpu time :   147.3 secs   av.it.:   4.4
      thresh= 1.000E-02 alpha_mix =  0.700 |ddv_scf|^2 =  2.788E-08

     Pert. #  1: Fermi energy shift (Ry) =    -2.1375E-05     7.8990E-11

      iter #   2 total cpu time :   159.5 secs   av.it.:  10.2
      thresh= 1.670E-05 alpha_mix =  0.700 |ddv_scf|^2 =  9.185E-10

     Pert. #  1: Fermi energy shift (Ry) =    -3.2945E-06     6.7922E-11

      iter #   3 total cpu time :   170.3 secs   av.it.:  10.1
      thresh= 3.031E-06 alpha_mix =  0.700 |ddv_scf|^2 =  2.127E-11

     Pert. #  1: Fermi energy shift (Ry) =     3.6697E-08     6.7800E-11

      iter #   4 total cpu time :   180.9 secs   av.it.:  10.0
      thresh= 4.612E-07 alpha_mix =  0.700 |ddv_scf|^2 =  1.799E-11

     Pert. #  1: Fermi energy shift (Ry) =     2.7646E-07     6.8404E-11

      iter #   5 total cpu time :   191.7 secs   av.it.:   8.8
      thresh= 4.242E-07 alpha_mix =  0.700 |ddv_scf|^2 =  1.978E-12

     Pert. #  1: Fermi energy shift (Ry) =     1.0878E-07     6.8591E-11

      iter #   6 total cpu time :   202.5 secs   av.it.:   9.2
      thresh= 1.407E-07 alpha_mix =  0.700 |ddv_scf|^2 =  2.091E-15

     End of self-consistent calculation

     Convergence has been achieved 


     Representation #   3 mode #   3

     Self-consistent Calculation

     Pert. #  1: Fermi energy shift (Ry) =     4.9483E-02    -3.9504E-11

      iter #   1 total cpu time :   222.1 secs   av.it.:   4.8
      thresh= 1.000E-02 alpha_mix =  0.700 |ddv_scf|^2 =  1.348E-06

     Pert. #  1: Fermi energy shift (Ry) =     2.9176E-02    -1.4041E-10

      iter #   2 total cpu time :   232.7 secs   av.it.:   9.4
      thresh= 1.161E-04 alpha_mix =  0.700 |ddv_scf|^2 =  3.446E-06

     Pert. #  1: Fermi energy shift (Ry) =     2.9917E-02     2.4326E-09

      iter #   3 total cpu time :   241.8 secs   av.it.:   8.3
      thresh= 1.856E-04 alpha_mix =  0.700 |ddv_scf|^2 =  6.344E-09

     Pert. #  1: Fermi energy shift (Ry) =     3.0576E-02    -1.2833E-09

      iter #   4 total cpu time :   253.8 secs   av.it.:   9.1
      thresh= 7.965E-06 alpha_mix =  0.700 |ddv_scf|^2 =  2.818E-10

     Pert. #  1: Fermi energy shift (Ry) =     3.0923E-02    -3.5911E-10

      iter #   5 total cpu time :   263.5 secs   av.it.:   9.2
      thresh= 1.679E-06 alpha_mix =  0.700 |ddv_scf|^2 =  3.659E-12

     Pert. #  1: Fermi energy shift (Ry) =     3.0901E-02    -5.6899E-11

      iter #   6 total cpu time :   273.9 secs   av.it.:   9.7
      thresh= 1.913E-07 alpha_mix =  0.700 |ddv_scf|^2 =  4.517E-13

     End of self-consistent calculation

     Convergence has been achieved 


     Representation #   4 mode #   4

     Self-consistent Calculation

     Pert. #  1: Fermi energy shift (Ry) =     1.7001E-05     2.9299E-11

      iter #   1 total cpu time :   289.6 secs   av.it.:   4.4
      thresh= 1.000E-02 alpha_mix =  0.700 |ddv_scf|^2 =  2.788E-08

     Pert. #  1: Fermi energy shift (Ry) =     3.6905E-07     5.8652E-11

      iter #   2 total cpu time :   300.6 secs   av.it.:  10.1
      thresh= 1.670E-05 alpha_mix =  0.700 |ddv_scf|^2 =  9.142E-10

     Pert. #  1: Fermi energy shift (Ry) =     4.8045E-08     2.1135E-11

      iter #   3 total cpu time :   314.2 secs   av.it.:   9.9
      thresh= 3.024E-06 alpha_mix =  0.700 |ddv_scf|^2 =  1.585E-11

     Pert. #  1: Fermi energy shift (Ry) =    -1.3971E-08     2.2601E-11

      iter #   4 total cpu time :   325.0 secs   av.it.:   9.7
      thresh= 3.982E-07 alpha_mix =  0.700 |ddv_scf|^2 =  8.044E-13

     End of self-consistent calculation

     Convergence has been achieved 


     Representation #   5 mode #   5

     Self-consistent Calculation

     Pert. #  1: Fermi energy shift (Ry) =     1.7938E-04    -2.0966E-11

      iter #   1 total cpu time :   342.2 secs   av.it.:   4.4
      thresh= 1.000E-02 alpha_mix =  0.700 |ddv_scf|^2 =  2.788E-08

     Pert. #  1: Fermi energy shift (Ry) =     2.1370E-05    -1.5595E-11

      iter #   2 total cpu time :   354.4 secs   av.it.:  10.2
      thresh= 1.670E-05 alpha_mix =  0.700 |ddv_scf|^2 =  9.185E-10

     Pert. #  1: Fermi energy shift (Ry) =     3.2912E-06    -2.5079E-11

      iter #   3 total cpu time :   365.0 secs   av.it.:  10.1
      thresh= 3.031E-06 alpha_mix =  0.700 |ddv_scf|^2 =  2.127E-11

     Pert. #  1: Fermi energy shift (Ry) =    -3.2456E-08    -2.9292E-11

      iter #   4 total cpu time :   377.4 secs   av.it.:  10.0
      thresh= 4.612E-07 alpha_mix =  0.700 |ddv_scf|^2 =  1.799E-11

     Pert. #  1: Fermi energy shift (Ry) =    -2.7906E-07    -2.7368E-11

      iter #   5 total cpu time :   388.2 secs   av.it.:   8.8
      thresh= 4.242E-07 alpha_mix =  0.700 |ddv_scf|^2 =  1.978E-12

     Pert. #  1: Fermi energy shift (Ry) =    -1.0969E-07    -2.8278E-11

      iter #   6 total cpu time :   399.0 secs   av.it.:   9.2
      thresh= 1.407E-07 alpha_mix =  0.700 |ddv_scf|^2 =  2.091E-15

     End of self-consistent calculation

     Convergence has been achieved 


     Representation #   6 mode #   6

     Self-consistent Calculation

     Pert. #  1: Fermi energy shift (Ry) =     4.9485E-02     2.5449E-13

      iter #   1 total cpu time :   416.4 secs   av.it.:   4.8
      thresh= 1.000E-02 alpha_mix =  0.700 |ddv_scf|^2 =  1.348E-06

     Pert. #  1: Fermi energy shift (Ry) =     2.9174E-02     6.0822E-11

      iter #   2 total cpu time :   426.5 secs   av.it.:   9.4
      thresh= 1.161E-04 alpha_mix =  0.700 |ddv_scf|^2 =  3.446E-06

     Pert. #  1: Fermi energy shift (Ry) =     2.9918E-02     2.1633E-09

      iter #   3 total cpu time :   437.4 secs   av.it.:   8.3
      thresh= 1.856E-04 alpha_mix =  0.700 |ddv_scf|^2 =  6.344E-09

     Pert. #  1: Fermi energy shift (Ry) =     3.0576E-02     4.1909E-10

      iter #   4 total cpu time :   447.9 secs   av.it.:   9.1
      thresh= 7.965E-06 alpha_mix =  0.700 |ddv_scf|^2 =  2.818E-10

     Pert. #  1: Fermi energy shift (Ry) =     3.0924E-02     2.5035E-11

      iter #   5 total cpu time :   457.7 secs   av.it.:   9.2
      thresh= 1.679E-06 alpha_mix =  0.700 |ddv_scf|^2 =  3.659E-12

     Pert. #  1: Fermi energy shift (Ry) =     3.0902E-02    -6.8317E-11

      iter #   6 total cpu time :   473.0 secs   av.it.:   9.7
      thresh= 1.913E-07 alpha_mix =  0.700 |ddv_scf|^2 =  4.517E-13

     End of self-consistent calculation

     Convergence has been achieved 


     Representation #   7 mode #   7

     Self-consistent Calculation

     Pert. #  1: Fermi energy shift (Ry) =    -1.7001E-05    -6.0237E-11

      iter #   1 total cpu time :   488.5 secs   av.it.:   4.4
      thresh= 1.000E-02 alpha_mix =  0.700 |ddv_scf|^2 =  2.788E-08

     Pert. #  1: Fermi energy shift (Ry) =    -3.6931E-07    -9.1521E-11

      iter #   2 total cpu time :   500.1 secs   av.it.:  10.1
      thresh= 1.670E-05 alpha_mix =  0.700 |ddv_scf|^2 =  9.142E-10

     Pert. #  1: Fermi energy shift (Ry) =    -4.8416E-08    -7.3279E-11

      iter #   3 total cpu time :   511.2 secs   av.it.:   9.9
      thresh= 3.024E-06 alpha_mix =  0.700 |ddv_scf|^2 =  1.585E-11

     Pert. #  1: Fermi energy shift (Ry) =     1.3626E-08    -7.5606E-11

      iter #   4 total cpu time :   521.9 secs   av.it.:   9.7
      thresh= 3.982E-07 alpha_mix =  0.700 |ddv_scf|^2 =  8.044E-13

     End of self-consistent calculation

     Convergence has been achieved 


     Representation #   8 mode #   8

     Self-consistent Calculation

     Pert. #  1: Fermi energy shift (Ry) =    -1.7938E-04     1.1753E-11

      iter #   1 total cpu time :   538.5 secs   av.it.:   4.4
      thresh= 1.000E-02 alpha_mix =  0.700 |ddv_scf|^2 =  2.788E-08

     Pert. #  1: Fermi energy shift (Ry) =    -2.1368E-05     1.2165E-11

      iter #   2 total cpu time :   549.4 secs   av.it.:  10.2
      thresh= 1.670E-05 alpha_mix =  0.700 |ddv_scf|^2 =  9.185E-10

     Pert. #  1: Fermi energy shift (Ry) =    -3.2941E-06     1.4521E-11

      iter #   3 total cpu time :   560.8 secs   av.it.:  10.1
      thresh= 3.031E-06 alpha_mix =  0.700 |ddv_scf|^2 =  2.127E-11

     Pert. #  1: Fermi energy shift (Ry) =     3.7677E-08     1.4802E-11

      iter #   4 total cpu time :   573.5 secs   av.it.:  10.0
      thresh= 4.612E-07 alpha_mix =  0.700 |ddv_scf|^2 =  1.799E-11

     Pert. #  1: Fermi energy shift (Ry) =     2.7746E-07     1.5862E-11

      iter #   5 total cpu time :   583.2 secs   av.it.:   8.8
      thresh= 4.242E-07 alpha_mix =  0.700 |ddv_scf|^2 =  1.978E-12

     Pert. #  1: Fermi energy shift (Ry) =     1.0975E-07     1.6903E-11

      iter #   6 total cpu time :   594.2 secs   av.it.:   9.2
      thresh= 1.407E-07 alpha_mix =  0.700 |ddv_scf|^2 =  2.091E-15

     End of self-consistent calculation

     Convergence has been achieved 


     Representation #   9 mode #   9

     Self-consistent Calculation

     Pert. #  1: Fermi energy shift (Ry) =    -4.9483E-02    -1.6607E-12

      iter #   1 total cpu time :   612.2 secs   av.it.:   4.8
      thresh= 1.000E-02 alpha_mix =  0.700 |ddv_scf|^2 =  1.348E-06

     Pert. #  1: Fermi energy shift (Ry) =    -2.9176E-02    -4.8854E-11

      iter #   2 total cpu time :   622.8 secs   av.it.:   9.4
      thresh= 1.161E-04 alpha_mix =  0.700 |ddv_scf|^2 =  3.446E-06

     Pert. #  1: Fermi energy shift (Ry) =    -2.9917E-02     5.5684E-09

      iter #   3 total cpu time :   633.2 secs   av.it.:   8.3
      thresh= 1.856E-04 alpha_mix =  0.700 |ddv_scf|^2 =  6.344E-09

     Pert. #  1: Fermi energy shift (Ry) =    -3.0576E-02     3.6446E-10

      iter #   4 total cpu time :   643.1 secs   av.it.:   9.1
      thresh= 7.965E-06 alpha_mix =  0.700 |ddv_scf|^2 =  2.818E-10

     Pert. #  1: Fermi energy shift (Ry) =    -3.0923E-02    -2.0353E-10

      iter #   5 total cpu time :   653.4 secs   av.it.:   9.2
      thresh= 1.679E-06 alpha_mix =  0.700 |ddv_scf|^2 =  3.659E-12

     Pert. #  1: Fermi energy shift (Ry) =    -3.0901E-02     4.5032E-11

      iter #   6 total cpu time :   665.6 secs   av.it.:   9.7
      thresh= 1.913E-07 alpha_mix =  0.700 |ddv_scf|^2 =  4.517E-13

     End of self-consistent calculation

     Convergence has been achieved 


     Representation #  10 mode #  10

     Self-consistent Calculation

     Pert. #  1: Fermi energy shift (Ry) =     1.7001E-05    -4.5490E-11

      iter #   1 total cpu time :   683.4 secs   av.it.:   4.4
      thresh= 1.000E-02 alpha_mix =  0.700 |ddv_scf|^2 =  2.788E-08

     Pert. #  1: Fermi energy shift (Ry) =     3.6861E-07    -3.0719E-11

      iter #   2 total cpu time :   695.5 secs   av.it.:  10.1
      thresh= 1.670E-05 alpha_mix =  0.700 |ddv_scf|^2 =  9.142E-10

     Pert. #  1: Fermi energy shift (Ry) =     4.8325E-08    -6.2767E-11

      iter #   3 total cpu time :   706.1 secs   av.it.:   9.9
      thresh= 3.024E-06 alpha_mix =  0.700 |ddv_scf|^2 =  1.585E-11

     Pert. #  1: Fermi energy shift (Ry) =    -1.3724E-08    -6.2566E-11

      iter #   4 total cpu time :   719.4 secs   av.it.:   9.7
      thresh= 3.982E-07 alpha_mix =  0.700 |ddv_scf|^2 =  8.044E-13

     End of self-consistent calculation

     Convergence has been achieved 


     Representation #  11 mode #  11

     Self-consistent Calculation

     Pert. #  1: Fermi energy shift (Ry) =     1.7938E-04     1.4026E-10

      iter #   1 total cpu time :   736.3 secs   av.it.:   4.4
      thresh= 1.000E-02 alpha_mix =  0.700 |ddv_scf|^2 =  2.788E-08

     Pert. #  1: Fermi energy shift (Ry) =     2.1371E-05     1.0511E-10

      iter #   2 total cpu time :   747.9 secs   av.it.:  10.2
      thresh= 1.670E-05 alpha_mix =  0.700 |ddv_scf|^2 =  9.185E-10

     Pert. #  1: Fermi energy shift (Ry) =     3.2924E-06     1.2038E-10

      iter #   3 total cpu time :   760.6 secs   av.it.:  10.1
      thresh= 3.031E-06 alpha_mix =  0.700 |ddv_scf|^2 =  2.127E-11

     Pert. #  1: Fermi energy shift (Ry) =    -3.1174E-08     1.2203E-10

      iter #   4 total cpu time :   771.8 secs   av.it.:  10.0
      thresh= 4.612E-07 alpha_mix =  0.700 |ddv_scf|^2 =  1.799E-11

     Pert. #  1: Fermi energy shift (Ry) =    -2.7779E-07     1.1897E-10

      iter #   5 total cpu time :   781.8 secs   av.it.:   8.8
      thresh= 4.242E-07 alpha_mix =  0.700 |ddv_scf|^2 =  1.978E-12

     Pert. #  1: Fermi energy shift (Ry) =    -1.0842E-07     1.1936E-10

      iter #   6 total cpu time :   792.0 secs   av.it.:   9.2
      thresh= 1.407E-07 alpha_mix =  0.700 |ddv_scf|^2 =  2.091E-15

     End of self-consistent calculation

     Convergence has been achieved 


     Representation #  12 mode #  12

     Self-consistent Calculation

     Pert. #  1: Fermi energy shift (Ry) =    -4.9485E-02    -1.5460E-11

      iter #   1 total cpu time :   807.7 secs   av.it.:   4.8
      thresh= 1.000E-02 alpha_mix =  0.700 |ddv_scf|^2 =  1.348E-06

     Pert. #  1: Fermi energy shift (Ry) =    -2.9174E-02     2.0256E-10

      iter #   2 total cpu time :   818.3 secs   av.it.:   9.4
      thresh= 1.161E-04 alpha_mix =  0.700 |ddv_scf|^2 =  3.446E-06

     Pert. #  1: Fermi energy shift (Ry) =    -2.9918E-02     8.3104E-10

      iter #   3 total cpu time :   827.2 secs   av.it.:   8.3
      thresh= 1.856E-04 alpha_mix =  0.700 |ddv_scf|^2 =  6.344E-09

     Pert. #  1: Fermi energy shift (Ry) =    -3.0576E-02    -5.1764E-10

      iter #   4 total cpu time :   837.9 secs   av.it.:   9.1
      thresh= 7.965E-06 alpha_mix =  0.700 |ddv_scf|^2 =  2.818E-10

     Pert. #  1: Fermi energy shift (Ry) =    -3.0924E-02    -5.2008E-11

      iter #   5 total cpu time :   848.4 secs   av.it.:   9.2
      thresh= 1.679E-06 alpha_mix =  0.700 |ddv_scf|^2 =  3.659E-12

     Pert. #  1: Fermi energy shift (Ry) =    -3.0902E-02    -2.0675E-11

      iter #   6 total cpu time :   859.1 secs   av.it.:   9.7
      thresh= 1.913E-07 alpha_mix =  0.700 |ddv_scf|^2 =  4.517E-13

     End of self-consistent calculation

     Convergence has been achieved 

     Number of q in the star =    1
     List of q in the star:
          1   0.000000000   0.000000000   0.000000000

     Diagonalizing the dynamical matrix

     q = (    0.000000000   0.000000000   0.000000000 ) 

 **************************************************************************
     freq (    1) =       0.153471 [THz] =       5.119244 [cm-1]
     freq (    2) =       0.315897 [THz] =      10.537188 [cm-1]
     freq (    3) =       0.446190 [THz] =      14.883289 [cm-1]
     freq (    4) =       1.751093 [THz] =      58.410177 [cm-1]
     freq (    5) =       1.828493 [THz] =      60.991977 [cm-1]
     freq (    6) =       6.400279 [THz] =     213.490340 [cm-1]
     freq (    7) =       6.580963 [THz] =     219.517285 [cm-1]
     freq (    8) =       7.768387 [THz] =     259.125494 [cm-1]
     freq (    9) =       7.811299 [THz] =     260.556901 [cm-1]
     freq (   10) =       8.286264 [THz] =     276.400000 [cm-1]
     freq (   11) =       8.322261 [THz] =     277.600761 [cm-1]
     freq (   12) =       8.332054 [THz] =     277.927393 [cm-1]
 **************************************************************************

     Mode symmetry, C_1 (1)     point group:

     freq (   1-   1) =          5.1  [cm-1]   --> A               I+R
     freq (   2-   2) =         10.5  [cm-1]   --> A               I+R
     freq (   3-   3) =         14.9  [cm-1]   --> A               I+R
     freq (   4-   4) =         58.4  [cm-1]   --> A               I+R
     freq (   5-   5) =         61.0  [cm-1]   --> A               I+R
     freq (   6-   6) =        213.5  [cm-1]   --> A               I+R
     freq (   7-   7) =        219.5  [cm-1]   --> A               I+R
     freq (   8-   8) =        259.1  [cm-1]   --> A               I+R
     freq (   9-   9) =        260.6  [cm-1]   --> A               I+R
     freq (  10-  10) =        276.4  [cm-1]   --> A               I+R
     freq (  11-  11) =        277.6  [cm-1]   --> A               I+R
     freq (  12-  12) =        277.9  [cm-1]   --> A               I+R

     PHONON       :  12m57.11s CPU  15m31.25s WALL

     INITIALIZATION: 
     phq_setup    :      0.00s CPU      0.01s WALL (       1 calls)
     phq_init     :      2.72s CPU      2.78s WALL (       1 calls)

     phq_init     :      2.72s CPU      2.78s WALL (       1 calls)
     init_vloc    :      0.00s CPU      0.00s WALL (       1 calls)
     init_us_1    :      0.00s CPU      0.00s WALL (       1 calls)
     init_us_2    :      1.77s CPU      1.87s WALL (   57000 calls)

     DYNAMICAL MATRIX:
     dynmat0      :      1.78s CPU      1.82s WALL (       1 calls)
     dynmat_us    :      1.78s CPU      1.81s WALL (       1 calls)
     d2ionq       :      0.00s CPU      0.00s WALL (       1 calls)
     phqscf       :    715.28s CPU    777.82s WALL (       1 calls)
     dynmatrix    :      0.00s CPU      0.01s WALL (       1 calls)

     phqscf       :    715.28s CPU    777.82s WALL (       1 calls)
     solve_linter :    703.96s CPU    765.47s WALL (      12 calls)
     sth_kernel   :    579.87s CPU    628.74s WALL (      64 calls)
     h_prec       :      0.85s CPU      0.89s WALL (   32000 calls)
     apply_dpot_b :     66.96s CPU     70.20s WALL (   32000 calls)
     ortho        :      7.92s CPU      8.19s WALL (   32000 calls)
     cgsolve      :    459.53s CPU    471.72s WALL (   32000 calls)
     incdrhoscf   :     69.54s CPU     78.21s WALL (   32000 calls)
                                        0.00s GPU  (   32000 calls)
     vpsifft      :     35.42s CPU     36.69s WALL (    6000 calls)
     dv_of_drho   :      0.03s CPU      0.04s WALL (      64 calls)
     mix_pot      :      0.10s CPU      0.51s WALL (      64 calls)
     ef_shift     :      0.02s CPU      0.03s WALL (      64 calls)
     ef_shift_wfc :      0.03s CPU      3.27s WALL (      12 calls)
     localdos     :      9.67s CPU      9.88s WALL (      12 calls)
     drhodv       :     11.31s CPU     11.54s WALL (      12 calls)

     dvqpsi_us    :     46.21s CPU     47.97s WALL (    6000 calls)
                                        0.00s GPU  (    6000 calls)
     dvqpsi_us_on :      5.52s CPU      5.65s WALL (    6000 calls)

     add_vuspsi   :     12.52s CPU     12.84s WALL (  369272 calls)


      Electron-phonon coupling
     elphel       :     53.70s CPU     56.58s WALL (      12 calls)

      General routines
     calbec       :     76.61s CPU     78.51s WALL (  773544 calls)
     fft          :      0.05s CPU      0.06s WALL (     324 calls)
     ffts         :     10.87s CPU     11.46s WALL (   55620 calls)
     fftw         :    502.11s CPU    523.49s WALL ( 6669236 calls)
     davcio       :     10.47s CPU     40.20s WALL (  177880 calls)
     write_rec    :      0.04s CPU      4.57s WALL (      76 calls)

      Additional routines
     ch_psi       :    444.98s CPU    456.76s WALL (  369272 calls)
     last         :     49.87s CPU     51.12s WALL (  369272 calls)
     Hesh         :      0.43s CPU      0.45s WALL (  369272 calls)
     ch_psi_all_k :     48.98s CPU     50.20s WALL (  369272 calls)
                                        0.00s GPU  (  369272 calls)
     ch_psi_calbe :     30.21s CPU     30.91s WALL (  369272 calls)
                                        0.00s GPU  (  369272 calls)
     h_psi_bgrp   :    394.03s CPU    404.55s WALL (  369272 calls)
     h_psi        :    393.74s CPU    404.27s WALL (  369272 calls)
     h_psi:pot    :    393.15s CPU    403.66s WALL (  369272 calls)
     h_psi:calbec :     31.00s CPU     31.74s WALL (  369272 calls)
     s_psi_bgrp   :      0.84s CPU      0.87s WALL (  770544 calls)


     PHONON       :  12m57.11s CPU  15m31.25s WALL


   This run was terminated on:  11:53:51  11Feb2026            

=------------------------------------------------------------------------------=
   JOB DONE.
=------------------------------------------------------------------------------=
