
     Program PWSCF v.7.3.1 starts on 11Feb2026 at 11:33:47 

     This program is part of the open-source Quantum ESPRESSO suite
     for quantum simulation of materials; please cite
         "P. Giannozzi et al., J. Phys.:Condens. Matter 21 395502 (2009);
         "P. Giannozzi et al., J. Phys.:Condens. Matter 29 465901 (2017);
         "P. Giannozzi et al., J. Chem. Phys. 152 154105 (2020);
          URL http://www.quantum-espresso.org", 
     in publications or presentations arising from this work. More details at
     http://www.quantum-espresso.org/quote

     Parallel version (MPI), running on    48 processors

     MPI processes distributed on     1 nodes
     241249 MiB available memory on the printing compute node when the environment starts

     Waiting for input...
     Reading input from standard input

     Current dimensions of program PWSCF are:
     Max number of different atomic species (ntypx) = 10
     Max number of k-points (npk) =  40000
     Max angular momentum in pseudopotentials (lmaxx) =  4

     K-points division:     npool     =       2
     R & G space division:  proc/nbgrp/npool/nimage =      24
     Subspace diagonalization in iterative solution of the eigenvalue problem:
     a serial algorithm will be used


     Parallelization info
     --------------------
     sticks:   dense  smooth     PW     G-vecs:    dense   smooth      PW
     Min          39      39     12                 1611     1611     274
     Max          41      41     13                 1616     1616     279
     Sum         955     955    295                38707    38707    6617

     Using Slab Decomposition



     bravais-lattice index     =            0
     lattice parameter (alat)  =       7.5543  a.u.
     unit-cell volume          =     616.3478 (a.u.)^3
     number of atoms/cell      =            4
     number of atomic types    =            1
     number of electrons       =        16.00
     number of Kohn-Sham states=           40
     kinetic-energy cutoff     =      60.0000  Ry
     charge density cutoff     =     240.0000  Ry
     scf convergence threshold =      8.0E-12
     mixing beta               =       0.4000
     number of iterations used =            8  plain     mixing
     Exchange-correlation= SLA-PZ-NOGX-NOGC
                           (   1   1   0   0   0   0   0)

     celldm(1)=   7.554342  celldm(2)=   0.000000  celldm(3)=   0.000000
     celldm(4)=   0.000000  celldm(5)=   0.000000  celldm(6)=   0.000000

     crystal axes: (cart. coord. in units of alat)
               a(1) = (   1.000000   0.000000   0.000000 )  
               a(2) = (  -0.500000   0.866025   0.000000 )  
               a(3) = (   0.000000   0.000000   1.650841 )  

     reciprocal axes: (cart. coord. in units 2 pi/alat)
               b(1) = (  1.000000  0.577350 -0.000000 )  
               b(2) = (  0.000000  1.154701  0.000000 )  
               b(3) = (  0.000000 -0.000000  0.605752 )  


     PseudoPot. # 1 for Ge read from file:
     pseudo/Ge.pz-hgh.UPF
     MD5 check sum: 4f4dbf79373ba026d545ed2bc1c74a27
     Pseudo is Norm-conserving, Zval =  4.0
     Generated in analytical, separable form
     Using radial grid of 1207 points,  6 beta functions with: 
                l(1) =   0
                l(2) =   0
                l(3) =   0
                l(4) =   1
                l(5) =   1
                l(6) =   2

     atomic species   valence    mass     pseudopotential
     Ge                4.00    72.64000     Ge( 1.00)

     No symmetry found


                                    s                        frac. trans.

      isym =  1     identity                                     

 cryst.   s( 1) = (     1          0          0      )
                  (     0          1          0      )
                  (     0          0          1      )

 cart.    s( 1) = (  1.0000000  0.0000000  0.0000000 )
                  (  0.0000000  1.0000000  0.0000000 )
                  (  0.0000000  0.0000000  1.0000000 )


   Cartesian axes

     site n.     atom                  positions (alat units)
         1        Ge     tau(   1) = (   0.5000000   0.2886751   0.1038400  )
         2        Ge     tau(   2) = (  -0.0000000   0.5773503   0.9292604  )
         3        Ge     tau(   3) = (   0.5000000   0.2886751   0.7215805  )
         4        Ge     tau(   4) = (  -0.0000000   0.5773503   1.5470009  )

   Crystallographic axes

     site n.     atom                  positions (cryst. coord.)
         1        Ge     tau(   1) = (  0.6666667  0.3333333  0.0629013  )
         2        Ge     tau(   2) = (  0.3333333  0.6666667  0.5629013  )
         3        Ge     tau(   3) = (  0.6666667  0.3333333  0.4370987  )
         4        Ge     tau(   4) = (  0.3333333  0.6666667  0.9370987  )

     number of k points=   500  Marzari-Vanderbilt smearing, width (Ry)=  0.0200
                       cart. coord. in units 2pi/alat
        k(    1) = (   0.0000000   0.0000000   0.0000000), wk =   0.0040000
        k(    2) = (   0.0000000   0.0000000   0.1211504), wk =   0.0040000
        k(    3) = (   0.0000000   0.0000000   0.2423008), wk =   0.0040000
        k(    4) = (   0.0000000   0.0000000  -0.2423008), wk =   0.0040000
        k(    5) = (   0.0000000   0.0000000  -0.1211504), wk =   0.0040000
        k(    6) = (   0.0000000   0.1154701   0.0000000), wk =   0.0040000
        k(    7) = (   0.0000000   0.1154701   0.1211504), wk =   0.0040000
        k(    8) = (   0.0000000   0.1154701   0.2423008), wk =   0.0040000
        k(    9) = (   0.0000000   0.1154701  -0.2423008), wk =   0.0040000
        k(   10) = (   0.0000000   0.1154701  -0.1211504), wk =   0.0040000
        k(   11) = (   0.0000000   0.2309401   0.0000000), wk =   0.0040000
        k(   12) = (   0.0000000   0.2309401   0.1211504), wk =   0.0040000
        k(   13) = (   0.0000000   0.2309401   0.2423008), wk =   0.0040000
        k(   14) = (   0.0000000   0.2309401  -0.2423008), wk =   0.0040000
        k(   15) = (   0.0000000   0.2309401  -0.1211504), wk =   0.0040000
        k(   16) = (   0.0000000   0.3464102   0.0000000), wk =   0.0040000
        k(   17) = (   0.0000000   0.3464102   0.1211504), wk =   0.0040000
        k(   18) = (   0.0000000   0.3464102   0.2423008), wk =   0.0040000
        k(   19) = (   0.0000000   0.3464102  -0.2423008), wk =   0.0040000
        k(   20) = (   0.0000000   0.3464102  -0.1211504), wk =   0.0040000
        k(   21) = (   0.0000000   0.4618802   0.0000000), wk =   0.0040000
        k(   22) = (   0.0000000   0.4618802   0.1211504), wk =   0.0040000
        k(   23) = (   0.0000000   0.4618802   0.2423008), wk =   0.0040000
        k(   24) = (   0.0000000   0.4618802  -0.2423008), wk =   0.0040000
        k(   25) = (   0.0000000   0.4618802  -0.1211504), wk =   0.0040000
        k(   26) = (   0.0000000  -0.5773503   0.0000000), wk =   0.0040000
        k(   27) = (   0.0000000  -0.5773503   0.1211504), wk =   0.0040000
        k(   28) = (   0.0000000  -0.5773503   0.2423008), wk =   0.0040000
        k(   29) = (   0.0000000  -0.5773503  -0.2423008), wk =   0.0040000
        k(   30) = (   0.0000000  -0.5773503  -0.1211504), wk =   0.0040000
        k(   31) = (   0.0000000  -0.4618802   0.0000000), wk =   0.0040000
        k(   32) = (   0.0000000  -0.4618802   0.1211504), wk =   0.0040000
        k(   33) = (   0.0000000  -0.4618802   0.2423008), wk =   0.0040000
        k(   34) = (   0.0000000  -0.4618802  -0.2423008), wk =   0.0040000
        k(   35) = (   0.0000000  -0.4618802  -0.1211504), wk =   0.0040000
        k(   36) = (   0.0000000  -0.3464102   0.0000000), wk =   0.0040000
        k(   37) = (   0.0000000  -0.3464102   0.1211504), wk =   0.0040000
        k(   38) = (   0.0000000  -0.3464102   0.2423008), wk =   0.0040000
        k(   39) = (   0.0000000  -0.3464102  -0.2423008), wk =   0.0040000
        k(   40) = (   0.0000000  -0.3464102  -0.1211504), wk =   0.0040000
        k(   41) = (   0.0000000  -0.2309401   0.0000000), wk =   0.0040000
        k(   42) = (   0.0000000  -0.2309401   0.1211504), wk =   0.0040000
        k(   43) = (   0.0000000  -0.2309401   0.2423008), wk =   0.0040000
        k(   44) = (   0.0000000  -0.2309401  -0.2423008), wk =   0.0040000
        k(   45) = (   0.0000000  -0.2309401  -0.1211504), wk =   0.0040000
        k(   46) = (   0.0000000  -0.1154701   0.0000000), wk =   0.0040000
        k(   47) = (   0.0000000  -0.1154701   0.1211504), wk =   0.0040000
        k(   48) = (   0.0000000  -0.1154701   0.2423008), wk =   0.0040000
        k(   49) = (   0.0000000  -0.1154701  -0.2423008), wk =   0.0040000
        k(   50) = (   0.0000000  -0.1154701  -0.1211504), wk =   0.0040000
        k(   51) = (   0.1000000   0.0577350   0.0000000), wk =   0.0040000
        k(   52) = (   0.1000000   0.0577350   0.1211504), wk =   0.0040000
        k(   53) = (   0.1000000   0.0577350   0.2423008), wk =   0.0040000
        k(   54) = (   0.1000000   0.0577350  -0.2423008), wk =   0.0040000
        k(   55) = (   0.1000000   0.0577350  -0.1211504), wk =   0.0040000
        k(   56) = (   0.1000000   0.1732051   0.0000000), wk =   0.0040000
        k(   57) = (   0.1000000   0.1732051   0.1211504), wk =   0.0040000
        k(   58) = (   0.1000000   0.1732051   0.2423008), wk =   0.0040000
        k(   59) = (   0.1000000   0.1732051  -0.2423008), wk =   0.0040000
        k(   60) = (   0.1000000   0.1732051  -0.1211504), wk =   0.0040000
        k(   61) = (   0.1000000   0.2886751   0.0000000), wk =   0.0040000
        k(   62) = (   0.1000000   0.2886751   0.1211504), wk =   0.0040000
        k(   63) = (   0.1000000   0.2886751   0.2423008), wk =   0.0040000
        k(   64) = (   0.1000000   0.2886751  -0.2423008), wk =   0.0040000
        k(   65) = (   0.1000000   0.2886751  -0.1211504), wk =   0.0040000
        k(   66) = (   0.1000000   0.4041452   0.0000000), wk =   0.0040000
        k(   67) = (   0.1000000   0.4041452   0.1211504), wk =   0.0040000
        k(   68) = (   0.1000000   0.4041452   0.2423008), wk =   0.0040000
        k(   69) = (   0.1000000   0.4041452  -0.2423008), wk =   0.0040000
        k(   70) = (   0.1000000   0.4041452  -0.1211504), wk =   0.0040000
        k(   71) = (   0.1000000   0.5196152   0.0000000), wk =   0.0040000
        k(   72) = (   0.1000000   0.5196152   0.1211504), wk =   0.0040000
        k(   73) = (   0.1000000   0.5196152   0.2423008), wk =   0.0040000
        k(   74) = (   0.1000000   0.5196152  -0.2423008), wk =   0.0040000
        k(   75) = (   0.1000000   0.5196152  -0.1211504), wk =   0.0040000
        k(   76) = (   0.1000000  -0.5196152   0.0000000), wk =   0.0040000
        k(   77) = (   0.1000000  -0.5196152   0.1211504), wk =   0.0040000
        k(   78) = (   0.1000000  -0.5196152   0.2423008), wk =   0.0040000
        k(   79) = (   0.1000000  -0.5196152  -0.2423008), wk =   0.0040000
        k(   80) = (   0.1000000  -0.5196152  -0.1211504), wk =   0.0040000
        k(   81) = (   0.1000000  -0.4041452   0.0000000), wk =   0.0040000
        k(   82) = (   0.1000000  -0.4041452   0.1211504), wk =   0.0040000
        k(   83) = (   0.1000000  -0.4041452   0.2423008), wk =   0.0040000
        k(   84) = (   0.1000000  -0.4041452  -0.2423008), wk =   0.0040000
        k(   85) = (   0.1000000  -0.4041452  -0.1211504), wk =   0.0040000
        k(   86) = (   0.1000000  -0.2886751   0.0000000), wk =   0.0040000
        k(   87) = (   0.1000000  -0.2886751   0.1211504), wk =   0.0040000
        k(   88) = (   0.1000000  -0.2886751   0.2423008), wk =   0.0040000
        k(   89) = (   0.1000000  -0.2886751  -0.2423008), wk =   0.0040000
        k(   90) = (   0.1000000  -0.2886751  -0.1211504), wk =   0.0040000
        k(   91) = (   0.1000000  -0.1732051   0.0000000), wk =   0.0040000
        k(   92) = (   0.1000000  -0.1732051   0.1211504), wk =   0.0040000
        k(   93) = (   0.1000000  -0.1732051   0.2423008), wk =   0.0040000
        k(   94) = (   0.1000000  -0.1732051  -0.2423008), wk =   0.0040000
        k(   95) = (   0.1000000  -0.1732051  -0.1211504), wk =   0.0040000
        k(   96) = (   0.1000000  -0.0577350   0.0000000), wk =   0.0040000
        k(   97) = (   0.1000000  -0.0577350   0.1211504), wk =   0.0040000
        k(   98) = (   0.1000000  -0.0577350   0.2423008), wk =   0.0040000
        k(   99) = (   0.1000000  -0.0577350  -0.2423008), wk =   0.0040000
        k(  100) = (   0.1000000  -0.0577350  -0.1211504), wk =   0.0040000
        k(  101) = (   0.2000000   0.1154701   0.0000000), wk =   0.0040000
        k(  102) = (   0.2000000   0.1154701   0.1211504), wk =   0.0040000
        k(  103) = (   0.2000000   0.1154701   0.2423008), wk =   0.0040000
        k(  104) = (   0.2000000   0.1154701  -0.2423008), wk =   0.0040000
        k(  105) = (   0.2000000   0.1154701  -0.1211504), wk =   0.0040000
        k(  106) = (   0.2000000   0.2309401   0.0000000), wk =   0.0040000
        k(  107) = (   0.2000000   0.2309401   0.1211504), wk =   0.0040000
        k(  108) = (   0.2000000   0.2309401   0.2423008), wk =   0.0040000
        k(  109) = (   0.2000000   0.2309401  -0.2423008), wk =   0.0040000
        k(  110) = (   0.2000000   0.2309401  -0.1211504), wk =   0.0040000
        k(  111) = (   0.2000000   0.3464102   0.0000000), wk =   0.0040000
        k(  112) = (   0.2000000   0.3464102   0.1211504), wk =   0.0040000
        k(  113) = (   0.2000000   0.3464102   0.2423008), wk =   0.0040000
        k(  114) = (   0.2000000   0.3464102  -0.2423008), wk =   0.0040000
        k(  115) = (   0.2000000   0.3464102  -0.1211504), wk =   0.0040000
        k(  116) = (   0.2000000   0.4618802   0.0000000), wk =   0.0040000
        k(  117) = (   0.2000000   0.4618802   0.1211504), wk =   0.0040000
        k(  118) = (   0.2000000   0.4618802   0.2423008), wk =   0.0040000
        k(  119) = (   0.2000000   0.4618802  -0.2423008), wk =   0.0040000
        k(  120) = (   0.2000000   0.4618802  -0.1211504), wk =   0.0040000
        k(  121) = (   0.2000000   0.5773503   0.0000000), wk =   0.0040000
        k(  122) = (   0.2000000   0.5773503   0.1211504), wk =   0.0040000
        k(  123) = (   0.2000000   0.5773503   0.2423008), wk =   0.0040000
        k(  124) = (   0.2000000   0.5773503  -0.2423008), wk =   0.0040000
        k(  125) = (   0.2000000   0.5773503  -0.1211504), wk =   0.0040000
        k(  126) = (   0.2000000  -0.4618802   0.0000000), wk =   0.0040000
        k(  127) = (   0.2000000  -0.4618802   0.1211504), wk =   0.0040000
        k(  128) = (   0.2000000  -0.4618802   0.2423008), wk =   0.0040000
        k(  129) = (   0.2000000  -0.4618802  -0.2423008), wk =   0.0040000
        k(  130) = (   0.2000000  -0.4618802  -0.1211504), wk =   0.0040000
        k(  131) = (   0.2000000  -0.3464102   0.0000000), wk =   0.0040000
        k(  132) = (   0.2000000  -0.3464102   0.1211504), wk =   0.0040000
        k(  133) = (   0.2000000  -0.3464102   0.2423008), wk =   0.0040000
        k(  134) = (   0.2000000  -0.3464102  -0.2423008), wk =   0.0040000
        k(  135) = (   0.2000000  -0.3464102  -0.1211504), wk =   0.0040000
        k(  136) = (   0.2000000  -0.2309401   0.0000000), wk =   0.0040000
        k(  137) = (   0.2000000  -0.2309401   0.1211504), wk =   0.0040000
        k(  138) = (   0.2000000  -0.2309401   0.2423008), wk =   0.0040000
        k(  139) = (   0.2000000  -0.2309401  -0.2423008), wk =   0.0040000
        k(  140) = (   0.2000000  -0.2309401  -0.1211504), wk =   0.0040000
        k(  141) = (   0.2000000  -0.1154701   0.0000000), wk =   0.0040000
        k(  142) = (   0.2000000  -0.1154701   0.1211504), wk =   0.0040000
        k(  143) = (   0.2000000  -0.1154701   0.2423008), wk =   0.0040000
        k(  144) = (   0.2000000  -0.1154701  -0.2423008), wk =   0.0040000
        k(  145) = (   0.2000000  -0.1154701  -0.1211504), wk =   0.0040000
        k(  146) = (   0.2000000   0.0000000   0.0000000), wk =   0.0040000
        k(  147) = (   0.2000000   0.0000000   0.1211504), wk =   0.0040000
        k(  148) = (   0.2000000   0.0000000   0.2423008), wk =   0.0040000
        k(  149) = (   0.2000000   0.0000000  -0.2423008), wk =   0.0040000
        k(  150) = (   0.2000000   0.0000000  -0.1211504), wk =   0.0040000
        k(  151) = (   0.3000000   0.1732051   0.0000000), wk =   0.0040000
        k(  152) = (   0.3000000   0.1732051   0.1211504), wk =   0.0040000
        k(  153) = (   0.3000000   0.1732051   0.2423008), wk =   0.0040000
        k(  154) = (   0.3000000   0.1732051  -0.2423008), wk =   0.0040000
        k(  155) = (   0.3000000   0.1732051  -0.1211504), wk =   0.0040000
        k(  156) = (   0.3000000   0.2886751   0.0000000), wk =   0.0040000
        k(  157) = (   0.3000000   0.2886751   0.1211504), wk =   0.0040000
        k(  158) = (   0.3000000   0.2886751   0.2423008), wk =   0.0040000
        k(  159) = (   0.3000000   0.2886751  -0.2423008), wk =   0.0040000
        k(  160) = (   0.3000000   0.2886751  -0.1211504), wk =   0.0040000
        k(  161) = (   0.3000000   0.4041452   0.0000000), wk =   0.0040000
        k(  162) = (   0.3000000   0.4041452   0.1211504), wk =   0.0040000
        k(  163) = (   0.3000000   0.4041452   0.2423008), wk =   0.0040000
        k(  164) = (   0.3000000   0.4041452  -0.2423008), wk =   0.0040000
        k(  165) = (   0.3000000   0.4041452  -0.1211504), wk =   0.0040000
        k(  166) = (   0.3000000   0.5196152   0.0000000), wk =   0.0040000
        k(  167) = (   0.3000000   0.5196152   0.1211504), wk =   0.0040000
        k(  168) = (   0.3000000   0.5196152   0.2423008), wk =   0.0040000
        k(  169) = (   0.3000000   0.5196152  -0.2423008), wk =   0.0040000
        k(  170) = (   0.3000000   0.5196152  -0.1211504), wk =   0.0040000
        k(  171) = (   0.3000000   0.6350853   0.0000000), wk =   0.0040000
        k(  172) = (   0.3000000   0.6350853   0.1211504), wk =   0.0040000
        k(  173) = (   0.3000000   0.6350853   0.2423008), wk =   0.0040000
        k(  174) = (   0.3000000   0.6350853  -0.2423008), wk =   0.0040000
        k(  175) = (   0.3000000   0.6350853  -0.1211504), wk =   0.0040000
        k(  176) = (   0.3000000  -0.4041452   0.0000000), wk =   0.0040000
        k(  177) = (   0.3000000  -0.4041452   0.1211504), wk =   0.0040000
        k(  178) = (   0.3000000  -0.4041452   0.2423008), wk =   0.0040000
        k(  179) = (   0.3000000  -0.4041452  -0.2423008), wk =   0.0040000
        k(  180) = (   0.3000000  -0.4041452  -0.1211504), wk =   0.0040000
        k(  181) = (   0.3000000  -0.2886751   0.0000000), wk =   0.0040000
        k(  182) = (   0.3000000  -0.2886751   0.1211504), wk =   0.0040000
        k(  183) = (   0.3000000  -0.2886751   0.2423008), wk =   0.0040000
        k(  184) = (   0.3000000  -0.2886751  -0.2423008), wk =   0.0040000
        k(  185) = (   0.3000000  -0.2886751  -0.1211504), wk =   0.0040000
        k(  186) = (   0.3000000  -0.1732051   0.0000000), wk =   0.0040000
        k(  187) = (   0.3000000  -0.1732051   0.1211504), wk =   0.0040000
        k(  188) = (   0.3000000  -0.1732051   0.2423008), wk =   0.0040000
        k(  189) = (   0.3000000  -0.1732051  -0.2423008), wk =   0.0040000
        k(  190) = (   0.3000000  -0.1732051  -0.1211504), wk =   0.0040000
        k(  191) = (   0.3000000  -0.0577350   0.0000000), wk =   0.0040000
        k(  192) = (   0.3000000  -0.0577350   0.1211504), wk =   0.0040000
        k(  193) = (   0.3000000  -0.0577350   0.2423008), wk =   0.0040000
        k(  194) = (   0.3000000  -0.0577350  -0.2423008), wk =   0.0040000
        k(  195) = (   0.3000000  -0.0577350  -0.1211504), wk =   0.0040000
        k(  196) = (   0.3000000   0.0577350   0.0000000), wk =   0.0040000
        k(  197) = (   0.3000000   0.0577350   0.1211504), wk =   0.0040000
        k(  198) = (   0.3000000   0.0577350   0.2423008), wk =   0.0040000
        k(  199) = (   0.3000000   0.0577350  -0.2423008), wk =   0.0040000
        k(  200) = (   0.3000000   0.0577350  -0.1211504), wk =   0.0040000
        k(  201) = (   0.4000000   0.2309401   0.0000000), wk =   0.0040000
        k(  202) = (   0.4000000   0.2309401   0.1211504), wk =   0.0040000
        k(  203) = (   0.4000000   0.2309401   0.2423008), wk =   0.0040000
        k(  204) = (   0.4000000   0.2309401  -0.2423008), wk =   0.0040000
        k(  205) = (   0.4000000   0.2309401  -0.1211504), wk =   0.0040000
        k(  206) = (   0.4000000   0.3464102   0.0000000), wk =   0.0040000
        k(  207) = (   0.4000000   0.3464102   0.1211504), wk =   0.0040000
        k(  208) = (   0.4000000   0.3464102   0.2423008), wk =   0.0040000
        k(  209) = (   0.4000000   0.3464102  -0.2423008), wk =   0.0040000
        k(  210) = (   0.4000000   0.3464102  -0.1211504), wk =   0.0040000
        k(  211) = (   0.4000000   0.4618802   0.0000000), wk =   0.0040000
        k(  212) = (   0.4000000   0.4618802   0.1211504), wk =   0.0040000
        k(  213) = (   0.4000000   0.4618802   0.2423008), wk =   0.0040000
        k(  214) = (   0.4000000   0.4618802  -0.2423008), wk =   0.0040000
        k(  215) = (   0.4000000   0.4618802  -0.1211504), wk =   0.0040000
        k(  216) = (   0.4000000   0.5773503   0.0000000), wk =   0.0040000
        k(  217) = (   0.4000000   0.5773503   0.1211504), wk =   0.0040000
        k(  218) = (   0.4000000   0.5773503   0.2423008), wk =   0.0040000
        k(  219) = (   0.4000000   0.5773503  -0.2423008), wk =   0.0040000
        k(  220) = (   0.4000000   0.5773503  -0.1211504), wk =   0.0040000
        k(  221) = (   0.4000000   0.6928203   0.0000000), wk =   0.0040000
        k(  222) = (   0.4000000   0.6928203   0.1211504), wk =   0.0040000
        k(  223) = (   0.4000000   0.6928203   0.2423008), wk =   0.0040000
        k(  224) = (   0.4000000   0.6928203  -0.2423008), wk =   0.0040000
        k(  225) = (   0.4000000   0.6928203  -0.1211504), wk =   0.0040000
        k(  226) = (   0.4000000  -0.3464102   0.0000000), wk =   0.0040000
        k(  227) = (   0.4000000  -0.3464102   0.1211504), wk =   0.0040000
        k(  228) = (   0.4000000  -0.3464102   0.2423008), wk =   0.0040000
        k(  229) = (   0.4000000  -0.3464102  -0.2423008), wk =   0.0040000
        k(  230) = (   0.4000000  -0.3464102  -0.1211504), wk =   0.0040000
        k(  231) = (   0.4000000  -0.2309401   0.0000000), wk =   0.0040000
        k(  232) = (   0.4000000  -0.2309401   0.1211504), wk =   0.0040000
        k(  233) = (   0.4000000  -0.2309401   0.2423008), wk =   0.0040000
        k(  234) = (   0.4000000  -0.2309401  -0.2423008), wk =   0.0040000
        k(  235) = (   0.4000000  -0.2309401  -0.1211504), wk =   0.0040000
        k(  236) = (   0.4000000  -0.1154701   0.0000000), wk =   0.0040000
        k(  237) = (   0.4000000  -0.1154701   0.1211504), wk =   0.0040000
        k(  238) = (   0.4000000  -0.1154701   0.2423008), wk =   0.0040000
        k(  239) = (   0.4000000  -0.1154701  -0.2423008), wk =   0.0040000
        k(  240) = (   0.4000000  -0.1154701  -0.1211504), wk =   0.0040000
        k(  241) = (   0.4000000   0.0000000   0.0000000), wk =   0.0040000
        k(  242) = (   0.4000000   0.0000000   0.1211504), wk =   0.0040000
        k(  243) = (   0.4000000   0.0000000   0.2423008), wk =   0.0040000
        k(  244) = (   0.4000000   0.0000000  -0.2423008), wk =   0.0040000
        k(  245) = (   0.4000000   0.0000000  -0.1211504), wk =   0.0040000
        k(  246) = (   0.4000000   0.1154701   0.0000000), wk =   0.0040000
        k(  247) = (   0.4000000   0.1154701   0.1211504), wk =   0.0040000
        k(  248) = (   0.4000000   0.1154701   0.2423008), wk =   0.0040000
        k(  249) = (   0.4000000   0.1154701  -0.2423008), wk =   0.0040000
        k(  250) = (   0.4000000   0.1154701  -0.1211504), wk =   0.0040000
        k(  251) = (  -0.5000000  -0.2886751   0.0000000), wk =   0.0040000
        k(  252) = (  -0.5000000  -0.2886751   0.1211504), wk =   0.0040000
        k(  253) = (  -0.5000000  -0.2886751   0.2423008), wk =   0.0040000
        k(  254) = (  -0.5000000  -0.2886751  -0.2423008), wk =   0.0040000
        k(  255) = (  -0.5000000  -0.2886751  -0.1211504), wk =   0.0040000
        k(  256) = (  -0.5000000  -0.1732051   0.0000000), wk =   0.0040000
        k(  257) = (  -0.5000000  -0.1732051   0.1211504), wk =   0.0040000
        k(  258) = (  -0.5000000  -0.1732051   0.2423008), wk =   0.0040000
        k(  259) = (  -0.5000000  -0.1732051  -0.2423008), wk =   0.0040000
        k(  260) = (  -0.5000000  -0.1732051  -0.1211504), wk =   0.0040000
        k(  261) = (  -0.5000000  -0.0577350   0.0000000), wk =   0.0040000
        k(  262) = (  -0.5000000  -0.0577350   0.1211504), wk =   0.0040000
        k(  263) = (  -0.5000000  -0.0577350   0.2423008), wk =   0.0040000
        k(  264) = (  -0.5000000  -0.0577350  -0.2423008), wk =   0.0040000
        k(  265) = (  -0.5000000  -0.0577350  -0.1211504), wk =   0.0040000
        k(  266) = (  -0.5000000   0.0577350   0.0000000), wk =   0.0040000
        k(  267) = (  -0.5000000   0.0577350   0.1211504), wk =   0.0040000
        k(  268) = (  -0.5000000   0.0577350   0.2423008), wk =   0.0040000
        k(  269) = (  -0.5000000   0.0577350  -0.2423008), wk =   0.0040000
        k(  270) = (  -0.5000000   0.0577350  -0.1211504), wk =   0.0040000
        k(  271) = (  -0.5000000   0.1732051   0.0000000), wk =   0.0040000
        k(  272) = (  -0.5000000   0.1732051   0.1211504), wk =   0.0040000
        k(  273) = (  -0.5000000   0.1732051   0.2423008), wk =   0.0040000
        k(  274) = (  -0.5000000   0.1732051  -0.2423008), wk =   0.0040000
        k(  275) = (  -0.5000000   0.1732051  -0.1211504), wk =   0.0040000
        k(  276) = (  -0.5000000  -0.8660254   0.0000000), wk =   0.0040000
        k(  277) = (  -0.5000000  -0.8660254   0.1211504), wk =   0.0040000
        k(  278) = (  -0.5000000  -0.8660254   0.2423008), wk =   0.0040000
        k(  279) = (  -0.5000000  -0.8660254  -0.2423008), wk =   0.0040000
        k(  280) = (  -0.5000000  -0.8660254  -0.1211504), wk =   0.0040000
        k(  281) = (  -0.5000000  -0.7505553   0.0000000), wk =   0.0040000
        k(  282) = (  -0.5000000  -0.7505553   0.1211504), wk =   0.0040000
        k(  283) = (  -0.5000000  -0.7505553   0.2423008), wk =   0.0040000
        k(  284) = (  -0.5000000  -0.7505553  -0.2423008), wk =   0.0040000
        k(  285) = (  -0.5000000  -0.7505553  -0.1211504), wk =   0.0040000
        k(  286) = (  -0.5000000  -0.6350853   0.0000000), wk =   0.0040000
        k(  287) = (  -0.5000000  -0.6350853   0.1211504), wk =   0.0040000
        k(  288) = (  -0.5000000  -0.6350853   0.2423008), wk =   0.0040000
        k(  289) = (  -0.5000000  -0.6350853  -0.2423008), wk =   0.0040000
        k(  290) = (  -0.5000000  -0.6350853  -0.1211504), wk =   0.0040000
        k(  291) = (  -0.5000000  -0.5196152   0.0000000), wk =   0.0040000
        k(  292) = (  -0.5000000  -0.5196152   0.1211504), wk =   0.0040000
        k(  293) = (  -0.5000000  -0.5196152   0.2423008), wk =   0.0040000
        k(  294) = (  -0.5000000  -0.5196152  -0.2423008), wk =   0.0040000
        k(  295) = (  -0.5000000  -0.5196152  -0.1211504), wk =   0.0040000
        k(  296) = (  -0.5000000  -0.4041452   0.0000000), wk =   0.0040000
        k(  297) = (  -0.5000000  -0.4041452   0.1211504), wk =   0.0040000
        k(  298) = (  -0.5000000  -0.4041452   0.2423008), wk =   0.0040000
        k(  299) = (  -0.5000000  -0.4041452  -0.2423008), wk =   0.0040000
        k(  300) = (  -0.5000000  -0.4041452  -0.1211504), wk =   0.0040000
        k(  301) = (  -0.4000000  -0.2309401   0.0000000), wk =   0.0040000
        k(  302) = (  -0.4000000  -0.2309401   0.1211504), wk =   0.0040000
        k(  303) = (  -0.4000000  -0.2309401   0.2423008), wk =   0.0040000
        k(  304) = (  -0.4000000  -0.2309401  -0.2423008), wk =   0.0040000
        k(  305) = (  -0.4000000  -0.2309401  -0.1211504), wk =   0.0040000
        k(  306) = (  -0.4000000  -0.1154701   0.0000000), wk =   0.0040000
        k(  307) = (  -0.4000000  -0.1154701   0.1211504), wk =   0.0040000
        k(  308) = (  -0.4000000  -0.1154701   0.2423008), wk =   0.0040000
        k(  309) = (  -0.4000000  -0.1154701  -0.2423008), wk =   0.0040000
        k(  310) = (  -0.4000000  -0.1154701  -0.1211504), wk =   0.0040000
        k(  311) = (  -0.4000000   0.0000000   0.0000000), wk =   0.0040000
        k(  312) = (  -0.4000000   0.0000000   0.1211504), wk =   0.0040000
        k(  313) = (  -0.4000000   0.0000000   0.2423008), wk =   0.0040000
        k(  314) = (  -0.4000000   0.0000000  -0.2423008), wk =   0.0040000
        k(  315) = (  -0.4000000   0.0000000  -0.1211504), wk =   0.0040000
        k(  316) = (  -0.4000000   0.1154701   0.0000000), wk =   0.0040000
        k(  317) = (  -0.4000000   0.1154701   0.1211504), wk =   0.0040000
        k(  318) = (  -0.4000000   0.1154701   0.2423008), wk =   0.0040000
        k(  319) = (  -0.4000000   0.1154701  -0.2423008), wk =   0.0040000
        k(  320) = (  -0.4000000   0.1154701  -0.1211504), wk =   0.0040000
        k(  321) = (  -0.4000000   0.2309401   0.0000000), wk =   0.0040000
        k(  322) = (  -0.4000000   0.2309401   0.1211504), wk =   0.0040000
        k(  323) = (  -0.4000000   0.2309401   0.2423008), wk =   0.0040000
        k(  324) = (  -0.4000000   0.2309401  -0.2423008), wk =   0.0040000
        k(  325) = (  -0.4000000   0.2309401  -0.1211504), wk =   0.0040000
        k(  326) = (  -0.4000000  -0.8082904   0.0000000), wk =   0.0040000
        k(  327) = (  -0.4000000  -0.8082904   0.1211504), wk =   0.0040000
        k(  328) = (  -0.4000000  -0.8082904   0.2423008), wk =   0.0040000
        k(  329) = (  -0.4000000  -0.8082904  -0.2423008), wk =   0.0040000
        k(  330) = (  -0.4000000  -0.8082904  -0.1211504), wk =   0.0040000
        k(  331) = (  -0.4000000  -0.6928203   0.0000000), wk =   0.0040000
        k(  332) = (  -0.4000000  -0.6928203   0.1211504), wk =   0.0040000
        k(  333) = (  -0.4000000  -0.6928203   0.2423008), wk =   0.0040000
        k(  334) = (  -0.4000000  -0.6928203  -0.2423008), wk =   0.0040000
        k(  335) = (  -0.4000000  -0.6928203  -0.1211504), wk =   0.0040000
        k(  336) = (  -0.4000000  -0.5773503   0.0000000), wk =   0.0040000
        k(  337) = (  -0.4000000  -0.5773503   0.1211504), wk =   0.0040000
        k(  338) = (  -0.4000000  -0.5773503   0.2423008), wk =   0.0040000
        k(  339) = (  -0.4000000  -0.5773503  -0.2423008), wk =   0.0040000
        k(  340) = (  -0.4000000  -0.5773503  -0.1211504), wk =   0.0040000
        k(  341) = (  -0.4000000  -0.4618802   0.0000000), wk =   0.0040000
        k(  342) = (  -0.4000000  -0.4618802   0.1211504), wk =   0.0040000
        k(  343) = (  -0.4000000  -0.4618802   0.2423008), wk =   0.0040000
        k(  344) = (  -0.4000000  -0.4618802  -0.2423008), wk =   0.0040000
        k(  345) = (  -0.4000000  -0.4618802  -0.1211504), wk =   0.0040000
        k(  346) = (  -0.4000000  -0.3464102   0.0000000), wk =   0.0040000
        k(  347) = (  -0.4000000  -0.3464102   0.1211504), wk =   0.0040000
        k(  348) = (  -0.4000000  -0.3464102   0.2423008), wk =   0.0040000
        k(  349) = (  -0.4000000  -0.3464102  -0.2423008), wk =   0.0040000
        k(  350) = (  -0.4000000  -0.3464102  -0.1211504), wk =   0.0040000
        k(  351) = (  -0.3000000  -0.1732051   0.0000000), wk =   0.0040000
        k(  352) = (  -0.3000000  -0.1732051   0.1211504), wk =   0.0040000
        k(  353) = (  -0.3000000  -0.1732051   0.2423008), wk =   0.0040000
        k(  354) = (  -0.3000000  -0.1732051  -0.2423008), wk =   0.0040000
        k(  355) = (  -0.3000000  -0.1732051  -0.1211504), wk =   0.0040000
        k(  356) = (  -0.3000000  -0.0577350   0.0000000), wk =   0.0040000
        k(  357) = (  -0.3000000  -0.0577350   0.1211504), wk =   0.0040000
        k(  358) = (  -0.3000000  -0.0577350   0.2423008), wk =   0.0040000
        k(  359) = (  -0.3000000  -0.0577350  -0.2423008), wk =   0.0040000
        k(  360) = (  -0.3000000  -0.0577350  -0.1211504), wk =   0.0040000
        k(  361) = (  -0.3000000   0.0577350   0.0000000), wk =   0.0040000
        k(  362) = (  -0.3000000   0.0577350   0.1211504), wk =   0.0040000
        k(  363) = (  -0.3000000   0.0577350   0.2423008), wk =   0.0040000
        k(  364) = (  -0.3000000   0.0577350  -0.2423008), wk =   0.0040000
        k(  365) = (  -0.3000000   0.0577350  -0.1211504), wk =   0.0040000
        k(  366) = (  -0.3000000   0.1732051   0.0000000), wk =   0.0040000
        k(  367) = (  -0.3000000   0.1732051   0.1211504), wk =   0.0040000
        k(  368) = (  -0.3000000   0.1732051   0.2423008), wk =   0.0040000
        k(  369) = (  -0.3000000   0.1732051  -0.2423008), wk =   0.0040000
        k(  370) = (  -0.3000000   0.1732051  -0.1211504), wk =   0.0040000
        k(  371) = (  -0.3000000   0.2886751   0.0000000), wk =   0.0040000
        k(  372) = (  -0.3000000   0.2886751   0.1211504), wk =   0.0040000
        k(  373) = (  -0.3000000   0.2886751   0.2423008), wk =   0.0040000
        k(  374) = (  -0.3000000   0.2886751  -0.2423008), wk =   0.0040000
        k(  375) = (  -0.3000000   0.2886751  -0.1211504), wk =   0.0040000
        k(  376) = (  -0.3000000  -0.7505553   0.0000000), wk =   0.0040000
        k(  377) = (  -0.3000000  -0.7505553   0.1211504), wk =   0.0040000
        k(  378) = (  -0.3000000  -0.7505553   0.2423008), wk =   0.0040000
        k(  379) = (  -0.3000000  -0.7505553  -0.2423008), wk =   0.0040000
        k(  380) = (  -0.3000000  -0.7505553  -0.1211504), wk =   0.0040000
        k(  381) = (  -0.3000000  -0.6350853   0.0000000), wk =   0.0040000
        k(  382) = (  -0.3000000  -0.6350853   0.1211504), wk =   0.0040000
        k(  383) = (  -0.3000000  -0.6350853   0.2423008), wk =   0.0040000
        k(  384) = (  -0.3000000  -0.6350853  -0.2423008), wk =   0.0040000
        k(  385) = (  -0.3000000  -0.6350853  -0.1211504), wk =   0.0040000
        k(  386) = (  -0.3000000  -0.5196152   0.0000000), wk =   0.0040000
        k(  387) = (  -0.3000000  -0.5196152   0.1211504), wk =   0.0040000
        k(  388) = (  -0.3000000  -0.5196152   0.2423008), wk =   0.0040000
        k(  389) = (  -0.3000000  -0.5196152  -0.2423008), wk =   0.0040000
        k(  390) = (  -0.3000000  -0.5196152  -0.1211504), wk =   0.0040000
        k(  391) = (  -0.3000000  -0.4041452   0.0000000), wk =   0.0040000
        k(  392) = (  -0.3000000  -0.4041452   0.1211504), wk =   0.0040000
        k(  393) = (  -0.3000000  -0.4041452   0.2423008), wk =   0.0040000
        k(  394) = (  -0.3000000  -0.4041452  -0.2423008), wk =   0.0040000
        k(  395) = (  -0.3000000  -0.4041452  -0.1211504), wk =   0.0040000
        k(  396) = (  -0.3000000  -0.2886751   0.0000000), wk =   0.0040000
        k(  397) = (  -0.3000000  -0.2886751   0.1211504), wk =   0.0040000
        k(  398) = (  -0.3000000  -0.2886751   0.2423008), wk =   0.0040000
        k(  399) = (  -0.3000000  -0.2886751  -0.2423008), wk =   0.0040000
        k(  400) = (  -0.3000000  -0.2886751  -0.1211504), wk =   0.0040000
        k(  401) = (  -0.2000000  -0.1154701   0.0000000), wk =   0.0040000
        k(  402) = (  -0.2000000  -0.1154701   0.1211504), wk =   0.0040000
        k(  403) = (  -0.2000000  -0.1154701   0.2423008), wk =   0.0040000
        k(  404) = (  -0.2000000  -0.1154701  -0.2423008), wk =   0.0040000
        k(  405) = (  -0.2000000  -0.1154701  -0.1211504), wk =   0.0040000
        k(  406) = (  -0.2000000   0.0000000   0.0000000), wk =   0.0040000
        k(  407) = (  -0.2000000   0.0000000   0.1211504), wk =   0.0040000
        k(  408) = (  -0.2000000   0.0000000   0.2423008), wk =   0.0040000
        k(  409) = (  -0.2000000   0.0000000  -0.2423008), wk =   0.0040000
        k(  410) = (  -0.2000000   0.0000000  -0.1211504), wk =   0.0040000
        k(  411) = (  -0.2000000   0.1154701   0.0000000), wk =   0.0040000
        k(  412) = (  -0.2000000   0.1154701   0.1211504), wk =   0.0040000
        k(  413) = (  -0.2000000   0.1154701   0.2423008), wk =   0.0040000
        k(  414) = (  -0.2000000   0.1154701  -0.2423008), wk =   0.0040000
        k(  415) = (  -0.2000000   0.1154701  -0.1211504), wk =   0.0040000
        k(  416) = (  -0.2000000   0.2309401   0.0000000), wk =   0.0040000
        k(  417) = (  -0.2000000   0.2309401   0.1211504), wk =   0.0040000
        k(  418) = (  -0.2000000   0.2309401   0.2423008), wk =   0.0040000
        k(  419) = (  -0.2000000   0.2309401  -0.2423008), wk =   0.0040000
        k(  420) = (  -0.2000000   0.2309401  -0.1211504), wk =   0.0040000
        k(  421) = (  -0.2000000   0.3464102   0.0000000), wk =   0.0040000
        k(  422) = (  -0.2000000   0.3464102   0.1211504), wk =   0.0040000
        k(  423) = (  -0.2000000   0.3464102   0.2423008), wk =   0.0040000
        k(  424) = (  -0.2000000   0.3464102  -0.2423008), wk =   0.0040000
        k(  425) = (  -0.2000000   0.3464102  -0.1211504), wk =   0.0040000
        k(  426) = (  -0.2000000  -0.6928203   0.0000000), wk =   0.0040000
        k(  427) = (  -0.2000000  -0.6928203   0.1211504), wk =   0.0040000
        k(  428) = (  -0.2000000  -0.6928203   0.2423008), wk =   0.0040000
        k(  429) = (  -0.2000000  -0.6928203  -0.2423008), wk =   0.0040000
        k(  430) = (  -0.2000000  -0.6928203  -0.1211504), wk =   0.0040000
        k(  431) = (  -0.2000000  -0.5773503   0.0000000), wk =   0.0040000
        k(  432) = (  -0.2000000  -0.5773503   0.1211504), wk =   0.0040000
        k(  433) = (  -0.2000000  -0.5773503   0.2423008), wk =   0.0040000
        k(  434) = (  -0.2000000  -0.5773503  -0.2423008), wk =   0.0040000
        k(  435) = (  -0.2000000  -0.5773503  -0.1211504), wk =   0.0040000
        k(  436) = (  -0.2000000  -0.4618802   0.0000000), wk =   0.0040000
        k(  437) = (  -0.2000000  -0.4618802   0.1211504), wk =   0.0040000
        k(  438) = (  -0.2000000  -0.4618802   0.2423008), wk =   0.0040000
        k(  439) = (  -0.2000000  -0.4618802  -0.2423008), wk =   0.0040000
        k(  440) = (  -0.2000000  -0.4618802  -0.1211504), wk =   0.0040000
        k(  441) = (  -0.2000000  -0.3464102   0.0000000), wk =   0.0040000
        k(  442) = (  -0.2000000  -0.3464102   0.1211504), wk =   0.0040000
        k(  443) = (  -0.2000000  -0.3464102   0.2423008), wk =   0.0040000
        k(  444) = (  -0.2000000  -0.3464102  -0.2423008), wk =   0.0040000
        k(  445) = (  -0.2000000  -0.3464102  -0.1211504), wk =   0.0040000
        k(  446) = (  -0.2000000  -0.2309401   0.0000000), wk =   0.0040000
        k(  447) = (  -0.2000000  -0.2309401   0.1211504), wk =   0.0040000
        k(  448) = (  -0.2000000  -0.2309401   0.2423008), wk =   0.0040000
        k(  449) = (  -0.2000000  -0.2309401  -0.2423008), wk =   0.0040000
        k(  450) = (  -0.2000000  -0.2309401  -0.1211504), wk =   0.0040000
        k(  451) = (  -0.1000000  -0.0577350   0.0000000), wk =   0.0040000
        k(  452) = (  -0.1000000  -0.0577350   0.1211504), wk =   0.0040000
        k(  453) = (  -0.1000000  -0.0577350   0.2423008), wk =   0.0040000
        k(  454) = (  -0.1000000  -0.0577350  -0.2423008), wk =   0.0040000
        k(  455) = (  -0.1000000  -0.0577350  -0.1211504), wk =   0.0040000
        k(  456) = (  -0.1000000   0.0577350   0.0000000), wk =   0.0040000
        k(  457) = (  -0.1000000   0.0577350   0.1211504), wk =   0.0040000
        k(  458) = (  -0.1000000   0.0577350   0.2423008), wk =   0.0040000
        k(  459) = (  -0.1000000   0.0577350  -0.2423008), wk =   0.0040000
        k(  460) = (  -0.1000000   0.0577350  -0.1211504), wk =   0.0040000
        k(  461) = (  -0.1000000   0.1732051   0.0000000), wk =   0.0040000
        k(  462) = (  -0.1000000   0.1732051   0.1211504), wk =   0.0040000
        k(  463) = (  -0.1000000   0.1732051   0.2423008), wk =   0.0040000
        k(  464) = (  -0.1000000   0.1732051  -0.2423008), wk =   0.0040000
        k(  465) = (  -0.1000000   0.1732051  -0.1211504), wk =   0.0040000
        k(  466) = (  -0.1000000   0.2886751   0.0000000), wk =   0.0040000
        k(  467) = (  -0.1000000   0.2886751   0.1211504), wk =   0.0040000
        k(  468) = (  -0.1000000   0.2886751   0.2423008), wk =   0.0040000
        k(  469) = (  -0.1000000   0.2886751  -0.2423008), wk =   0.0040000
        k(  470) = (  -0.1000000   0.2886751  -0.1211504), wk =   0.0040000
        k(  471) = (  -0.1000000   0.4041452   0.0000000), wk =   0.0040000
        k(  472) = (  -0.1000000   0.4041452   0.1211504), wk =   0.0040000
        k(  473) = (  -0.1000000   0.4041452   0.2423008), wk =   0.0040000
        k(  474) = (  -0.1000000   0.4041452  -0.2423008), wk =   0.0040000
        k(  475) = (  -0.1000000   0.4041452  -0.1211504), wk =   0.0040000
        k(  476) = (  -0.1000000  -0.6350853   0.0000000), wk =   0.0040000
        k(  477) = (  -0.1000000  -0.6350853   0.1211504), wk =   0.0040000
        k(  478) = (  -0.1000000  -0.6350853   0.2423008), wk =   0.0040000
        k(  479) = (  -0.1000000  -0.6350853  -0.2423008), wk =   0.0040000
        k(  480) = (  -0.1000000  -0.6350853  -0.1211504), wk =   0.0040000
        k(  481) = (  -0.1000000  -0.5196152   0.0000000), wk =   0.0040000
        k(  482) = (  -0.1000000  -0.5196152   0.1211504), wk =   0.0040000
        k(  483) = (  -0.1000000  -0.5196152   0.2423008), wk =   0.0040000
        k(  484) = (  -0.1000000  -0.5196152  -0.2423008), wk =   0.0040000
        k(  485) = (  -0.1000000  -0.5196152  -0.1211504), wk =   0.0040000
        k(  486) = (  -0.1000000  -0.4041452   0.0000000), wk =   0.0040000
        k(  487) = (  -0.1000000  -0.4041452   0.1211504), wk =   0.0040000
        k(  488) = (  -0.1000000  -0.4041452   0.2423008), wk =   0.0040000
        k(  489) = (  -0.1000000  -0.4041452  -0.2423008), wk =   0.0040000
        k(  490) = (  -0.1000000  -0.4041452  -0.1211504), wk =   0.0040000
        k(  491) = (  -0.1000000  -0.2886751   0.0000000), wk =   0.0040000
        k(  492) = (  -0.1000000  -0.2886751   0.1211504), wk =   0.0040000
        k(  493) = (  -0.1000000  -0.2886751   0.2423008), wk =   0.0040000
        k(  494) = (  -0.1000000  -0.2886751  -0.2423008), wk =   0.0040000
        k(  495) = (  -0.1000000  -0.2886751  -0.1211504), wk =   0.0040000
        k(  496) = (  -0.1000000  -0.1732051   0.0000000), wk =   0.0040000
        k(  497) = (  -0.1000000  -0.1732051   0.1211504), wk =   0.0040000
        k(  498) = (  -0.1000000  -0.1732051   0.2423008), wk =   0.0040000
        k(  499) = (  -0.1000000  -0.1732051  -0.2423008), wk =   0.0040000
        k(  500) = (  -0.1000000  -0.1732051  -0.1211504), wk =   0.0040000

                       cryst. coord.
        k(    1) = (   0.0000000   0.0000000   0.0000000), wk =   0.0040000
        k(    2) = (   0.0000000   0.0000000   0.2000000), wk =   0.0040000
        k(    3) = (   0.0000000   0.0000000   0.4000000), wk =   0.0040000
        k(    4) = (   0.0000000   0.0000000  -0.4000000), wk =   0.0040000
        k(    5) = (   0.0000000   0.0000000  -0.2000000), wk =   0.0040000
        k(    6) = (   0.0000000   0.1000000   0.0000000), wk =   0.0040000
        k(    7) = (   0.0000000   0.1000000   0.2000000), wk =   0.0040000
        k(    8) = (   0.0000000   0.1000000   0.4000000), wk =   0.0040000
        k(    9) = (   0.0000000   0.1000000  -0.4000000), wk =   0.0040000
        k(   10) = (   0.0000000   0.1000000  -0.2000000), wk =   0.0040000
        k(   11) = (   0.0000000   0.2000000   0.0000000), wk =   0.0040000
        k(   12) = (   0.0000000   0.2000000   0.2000000), wk =   0.0040000
        k(   13) = (   0.0000000   0.2000000   0.4000000), wk =   0.0040000
        k(   14) = (   0.0000000   0.2000000  -0.4000000), wk =   0.0040000
        k(   15) = (   0.0000000   0.2000000  -0.2000000), wk =   0.0040000
        k(   16) = (   0.0000000   0.3000000   0.0000000), wk =   0.0040000
        k(   17) = (   0.0000000   0.3000000   0.2000000), wk =   0.0040000
        k(   18) = (   0.0000000   0.3000000   0.4000000), wk =   0.0040000
        k(   19) = (   0.0000000   0.3000000  -0.4000000), wk =   0.0040000
        k(   20) = (   0.0000000   0.3000000  -0.2000000), wk =   0.0040000
        k(   21) = (   0.0000000   0.4000000   0.0000000), wk =   0.0040000
        k(   22) = (   0.0000000   0.4000000   0.2000000), wk =   0.0040000
        k(   23) = (   0.0000000   0.4000000   0.4000000), wk =   0.0040000
        k(   24) = (   0.0000000   0.4000000  -0.4000000), wk =   0.0040000
        k(   25) = (   0.0000000   0.4000000  -0.2000000), wk =   0.0040000
        k(   26) = (   0.0000000  -0.5000000   0.0000000), wk =   0.0040000
        k(   27) = (   0.0000000  -0.5000000   0.2000000), wk =   0.0040000
        k(   28) = (   0.0000000  -0.5000000   0.4000000), wk =   0.0040000
        k(   29) = (   0.0000000  -0.5000000  -0.4000000), wk =   0.0040000
        k(   30) = (   0.0000000  -0.5000000  -0.2000000), wk =   0.0040000
        k(   31) = (   0.0000000  -0.4000000   0.0000000), wk =   0.0040000
        k(   32) = (   0.0000000  -0.4000000   0.2000000), wk =   0.0040000
        k(   33) = (   0.0000000  -0.4000000   0.4000000), wk =   0.0040000
        k(   34) = (   0.0000000  -0.4000000  -0.4000000), wk =   0.0040000
        k(   35) = (   0.0000000  -0.4000000  -0.2000000), wk =   0.0040000
        k(   36) = (   0.0000000  -0.3000000   0.0000000), wk =   0.0040000
        k(   37) = (   0.0000000  -0.3000000   0.2000000), wk =   0.0040000
        k(   38) = (   0.0000000  -0.3000000   0.4000000), wk =   0.0040000
        k(   39) = (   0.0000000  -0.3000000  -0.4000000), wk =   0.0040000
        k(   40) = (   0.0000000  -0.3000000  -0.2000000), wk =   0.0040000
        k(   41) = (   0.0000000  -0.2000000   0.0000000), wk =   0.0040000
        k(   42) = (   0.0000000  -0.2000000   0.2000000), wk =   0.0040000
        k(   43) = (   0.0000000  -0.2000000   0.4000000), wk =   0.0040000
        k(   44) = (   0.0000000  -0.2000000  -0.4000000), wk =   0.0040000
        k(   45) = (   0.0000000  -0.2000000  -0.2000000), wk =   0.0040000
        k(   46) = (   0.0000000  -0.1000000   0.0000000), wk =   0.0040000
        k(   47) = (   0.0000000  -0.1000000   0.2000000), wk =   0.0040000
        k(   48) = (   0.0000000  -0.1000000   0.4000000), wk =   0.0040000
        k(   49) = (   0.0000000  -0.1000000  -0.4000000), wk =   0.0040000
        k(   50) = (   0.0000000  -0.1000000  -0.2000000), wk =   0.0040000
        k(   51) = (   0.1000000  -0.0000000   0.0000000), wk =   0.0040000
        k(   52) = (   0.1000000  -0.0000000   0.2000000), wk =   0.0040000
        k(   53) = (   0.1000000  -0.0000000   0.4000000), wk =   0.0040000
        k(   54) = (   0.1000000  -0.0000000  -0.4000000), wk =   0.0040000
        k(   55) = (   0.1000000  -0.0000000  -0.2000000), wk =   0.0040000
        k(   56) = (   0.1000000   0.1000000   0.0000000), wk =   0.0040000
        k(   57) = (   0.1000000   0.1000000   0.2000000), wk =   0.0040000
        k(   58) = (   0.1000000   0.1000000   0.4000000), wk =   0.0040000
        k(   59) = (   0.1000000   0.1000000  -0.4000000), wk =   0.0040000
        k(   60) = (   0.1000000   0.1000000  -0.2000000), wk =   0.0040000
        k(   61) = (   0.1000000   0.2000000   0.0000000), wk =   0.0040000
        k(   62) = (   0.1000000   0.2000000   0.2000000), wk =   0.0040000
        k(   63) = (   0.1000000   0.2000000   0.4000000), wk =   0.0040000
        k(   64) = (   0.1000000   0.2000000  -0.4000000), wk =   0.0040000
        k(   65) = (   0.1000000   0.2000000  -0.2000000), wk =   0.0040000
        k(   66) = (   0.1000000   0.3000000   0.0000000), wk =   0.0040000
        k(   67) = (   0.1000000   0.3000000   0.2000000), wk =   0.0040000
        k(   68) = (   0.1000000   0.3000000   0.4000000), wk =   0.0040000
        k(   69) = (   0.1000000   0.3000000  -0.4000000), wk =   0.0040000
        k(   70) = (   0.1000000   0.3000000  -0.2000000), wk =   0.0040000
        k(   71) = (   0.1000000   0.4000000   0.0000000), wk =   0.0040000
        k(   72) = (   0.1000000   0.4000000   0.2000000), wk =   0.0040000
        k(   73) = (   0.1000000   0.4000000   0.4000000), wk =   0.0040000
        k(   74) = (   0.1000000   0.4000000  -0.4000000), wk =   0.0040000
        k(   75) = (   0.1000000   0.4000000  -0.2000000), wk =   0.0040000
        k(   76) = (   0.1000000  -0.5000000   0.0000000), wk =   0.0040000
        k(   77) = (   0.1000000  -0.5000000   0.2000000), wk =   0.0040000
        k(   78) = (   0.1000000  -0.5000000   0.4000000), wk =   0.0040000
        k(   79) = (   0.1000000  -0.5000000  -0.4000000), wk =   0.0040000
        k(   80) = (   0.1000000  -0.5000000  -0.2000000), wk =   0.0040000
        k(   81) = (   0.1000000  -0.4000000   0.0000000), wk =   0.0040000
        k(   82) = (   0.1000000  -0.4000000   0.2000000), wk =   0.0040000
        k(   83) = (   0.1000000  -0.4000000   0.4000000), wk =   0.0040000
        k(   84) = (   0.1000000  -0.4000000  -0.4000000), wk =   0.0040000
        k(   85) = (   0.1000000  -0.4000000  -0.2000000), wk =   0.0040000
        k(   86) = (   0.1000000  -0.3000000   0.0000000), wk =   0.0040000
        k(   87) = (   0.1000000  -0.3000000   0.2000000), wk =   0.0040000
        k(   88) = (   0.1000000  -0.3000000   0.4000000), wk =   0.0040000
        k(   89) = (   0.1000000  -0.3000000  -0.4000000), wk =   0.0040000
        k(   90) = (   0.1000000  -0.3000000  -0.2000000), wk =   0.0040000
        k(   91) = (   0.1000000  -0.2000000   0.0000000), wk =   0.0040000
        k(   92) = (   0.1000000  -0.2000000   0.2000000), wk =   0.0040000
        k(   93) = (   0.1000000  -0.2000000   0.4000000), wk =   0.0040000
        k(   94) = (   0.1000000  -0.2000000  -0.4000000), wk =   0.0040000
        k(   95) = (   0.1000000  -0.2000000  -0.2000000), wk =   0.0040000
        k(   96) = (   0.1000000  -0.1000000   0.0000000), wk =   0.0040000
        k(   97) = (   0.1000000  -0.1000000   0.2000000), wk =   0.0040000
        k(   98) = (   0.1000000  -0.1000000   0.4000000), wk =   0.0040000
        k(   99) = (   0.1000000  -0.1000000  -0.4000000), wk =   0.0040000
        k(  100) = (   0.1000000  -0.1000000  -0.2000000), wk =   0.0040000
        k(  101) = (   0.2000000  -0.0000000   0.0000000), wk =   0.0040000
        k(  102) = (   0.2000000  -0.0000000   0.2000000), wk =   0.0040000
        k(  103) = (   0.2000000  -0.0000000   0.4000000), wk =   0.0040000
        k(  104) = (   0.2000000  -0.0000000  -0.4000000), wk =   0.0040000
        k(  105) = (   0.2000000  -0.0000000  -0.2000000), wk =   0.0040000
        k(  106) = (   0.2000000   0.1000000   0.0000000), wk =   0.0040000
        k(  107) = (   0.2000000   0.1000000   0.2000000), wk =   0.0040000
        k(  108) = (   0.2000000   0.1000000   0.4000000), wk =   0.0040000
        k(  109) = (   0.2000000   0.1000000  -0.4000000), wk =   0.0040000
        k(  110) = (   0.2000000   0.1000000  -0.2000000), wk =   0.0040000
        k(  111) = (   0.2000000   0.2000000   0.0000000), wk =   0.0040000
        k(  112) = (   0.2000000   0.2000000   0.2000000), wk =   0.0040000
        k(  113) = (   0.2000000   0.2000000   0.4000000), wk =   0.0040000
        k(  114) = (   0.2000000   0.2000000  -0.4000000), wk =   0.0040000
        k(  115) = (   0.2000000   0.2000000  -0.2000000), wk =   0.0040000
        k(  116) = (   0.2000000   0.3000000   0.0000000), wk =   0.0040000
        k(  117) = (   0.2000000   0.3000000   0.2000000), wk =   0.0040000
        k(  118) = (   0.2000000   0.3000000   0.4000000), wk =   0.0040000
        k(  119) = (   0.2000000   0.3000000  -0.4000000), wk =   0.0040000
        k(  120) = (   0.2000000   0.3000000  -0.2000000), wk =   0.0040000
        k(  121) = (   0.2000000   0.4000000   0.0000000), wk =   0.0040000
        k(  122) = (   0.2000000   0.4000000   0.2000000), wk =   0.0040000
        k(  123) = (   0.2000000   0.4000000   0.4000000), wk =   0.0040000
        k(  124) = (   0.2000000   0.4000000  -0.4000000), wk =   0.0040000
        k(  125) = (   0.2000000   0.4000000  -0.2000000), wk =   0.0040000
        k(  126) = (   0.2000000  -0.5000000   0.0000000), wk =   0.0040000
        k(  127) = (   0.2000000  -0.5000000   0.2000000), wk =   0.0040000
        k(  128) = (   0.2000000  -0.5000000   0.4000000), wk =   0.0040000
        k(  129) = (   0.2000000  -0.5000000  -0.4000000), wk =   0.0040000
        k(  130) = (   0.2000000  -0.5000000  -0.2000000), wk =   0.0040000
        k(  131) = (   0.2000000  -0.4000000   0.0000000), wk =   0.0040000
        k(  132) = (   0.2000000  -0.4000000   0.2000000), wk =   0.0040000
        k(  133) = (   0.2000000  -0.4000000   0.4000000), wk =   0.0040000
        k(  134) = (   0.2000000  -0.4000000  -0.4000000), wk =   0.0040000
        k(  135) = (   0.2000000  -0.4000000  -0.2000000), wk =   0.0040000
        k(  136) = (   0.2000000  -0.3000000   0.0000000), wk =   0.0040000
        k(  137) = (   0.2000000  -0.3000000   0.2000000), wk =   0.0040000
        k(  138) = (   0.2000000  -0.3000000   0.4000000), wk =   0.0040000
        k(  139) = (   0.2000000  -0.3000000  -0.4000000), wk =   0.0040000
        k(  140) = (   0.2000000  -0.3000000  -0.2000000), wk =   0.0040000
        k(  141) = (   0.2000000  -0.2000000   0.0000000), wk =   0.0040000
        k(  142) = (   0.2000000  -0.2000000   0.2000000), wk =   0.0040000
        k(  143) = (   0.2000000  -0.2000000   0.4000000), wk =   0.0040000
        k(  144) = (   0.2000000  -0.2000000  -0.4000000), wk =   0.0040000
        k(  145) = (   0.2000000  -0.2000000  -0.2000000), wk =   0.0040000
        k(  146) = (   0.2000000  -0.1000000   0.0000000), wk =   0.0040000
        k(  147) = (   0.2000000  -0.1000000   0.2000000), wk =   0.0040000
        k(  148) = (   0.2000000  -0.1000000   0.4000000), wk =   0.0040000
        k(  149) = (   0.2000000  -0.1000000  -0.4000000), wk =   0.0040000
        k(  150) = (   0.2000000  -0.1000000  -0.2000000), wk =   0.0040000
        k(  151) = (   0.3000000  -0.0000000   0.0000000), wk =   0.0040000
        k(  152) = (   0.3000000  -0.0000000   0.2000000), wk =   0.0040000
        k(  153) = (   0.3000000  -0.0000000   0.4000000), wk =   0.0040000
        k(  154) = (   0.3000000  -0.0000000  -0.4000000), wk =   0.0040000
        k(  155) = (   0.3000000  -0.0000000  -0.2000000), wk =   0.0040000
        k(  156) = (   0.3000000   0.1000000   0.0000000), wk =   0.0040000
        k(  157) = (   0.3000000   0.1000000   0.2000000), wk =   0.0040000
        k(  158) = (   0.3000000   0.1000000   0.4000000), wk =   0.0040000
        k(  159) = (   0.3000000   0.1000000  -0.4000000), wk =   0.0040000
        k(  160) = (   0.3000000   0.1000000  -0.2000000), wk =   0.0040000
        k(  161) = (   0.3000000   0.2000000   0.0000000), wk =   0.0040000
        k(  162) = (   0.3000000   0.2000000   0.2000000), wk =   0.0040000
        k(  163) = (   0.3000000   0.2000000   0.4000000), wk =   0.0040000
        k(  164) = (   0.3000000   0.2000000  -0.4000000), wk =   0.0040000
        k(  165) = (   0.3000000   0.2000000  -0.2000000), wk =   0.0040000
        k(  166) = (   0.3000000   0.3000000   0.0000000), wk =   0.0040000
        k(  167) = (   0.3000000   0.3000000   0.2000000), wk =   0.0040000
        k(  168) = (   0.3000000   0.3000000   0.4000000), wk =   0.0040000
        k(  169) = (   0.3000000   0.3000000  -0.4000000), wk =   0.0040000
        k(  170) = (   0.3000000   0.3000000  -0.2000000), wk =   0.0040000
        k(  171) = (   0.3000000   0.4000000   0.0000000), wk =   0.0040000
        k(  172) = (   0.3000000   0.4000000   0.2000000), wk =   0.0040000
        k(  173) = (   0.3000000   0.4000000   0.4000000), wk =   0.0040000
        k(  174) = (   0.3000000   0.4000000  -0.4000000), wk =   0.0040000
        k(  175) = (   0.3000000   0.4000000  -0.2000000), wk =   0.0040000
        k(  176) = (   0.3000000  -0.5000000   0.0000000), wk =   0.0040000
        k(  177) = (   0.3000000  -0.5000000   0.2000000), wk =   0.0040000
        k(  178) = (   0.3000000  -0.5000000   0.4000000), wk =   0.0040000
        k(  179) = (   0.3000000  -0.5000000  -0.4000000), wk =   0.0040000
        k(  180) = (   0.3000000  -0.5000000  -0.2000000), wk =   0.0040000
        k(  181) = (   0.3000000  -0.4000000   0.0000000), wk =   0.0040000
        k(  182) = (   0.3000000  -0.4000000   0.2000000), wk =   0.0040000
        k(  183) = (   0.3000000  -0.4000000   0.4000000), wk =   0.0040000
        k(  184) = (   0.3000000  -0.4000000  -0.4000000), wk =   0.0040000
        k(  185) = (   0.3000000  -0.4000000  -0.2000000), wk =   0.0040000
        k(  186) = (   0.3000000  -0.3000000   0.0000000), wk =   0.0040000
        k(  187) = (   0.3000000  -0.3000000   0.2000000), wk =   0.0040000
        k(  188) = (   0.3000000  -0.3000000   0.4000000), wk =   0.0040000
        k(  189) = (   0.3000000  -0.3000000  -0.4000000), wk =   0.0040000
        k(  190) = (   0.3000000  -0.3000000  -0.2000000), wk =   0.0040000
        k(  191) = (   0.3000000  -0.2000000   0.0000000), wk =   0.0040000
        k(  192) = (   0.3000000  -0.2000000   0.2000000), wk =   0.0040000
        k(  193) = (   0.3000000  -0.2000000   0.4000000), wk =   0.0040000
        k(  194) = (   0.3000000  -0.2000000  -0.4000000), wk =   0.0040000
        k(  195) = (   0.3000000  -0.2000000  -0.2000000), wk =   0.0040000
        k(  196) = (   0.3000000  -0.1000000   0.0000000), wk =   0.0040000
        k(  197) = (   0.3000000  -0.1000000   0.2000000), wk =   0.0040000
        k(  198) = (   0.3000000  -0.1000000   0.4000000), wk =   0.0040000
        k(  199) = (   0.3000000  -0.1000000  -0.4000000), wk =   0.0040000
        k(  200) = (   0.3000000  -0.1000000  -0.2000000), wk =   0.0040000
        k(  201) = (   0.4000000  -0.0000000   0.0000000), wk =   0.0040000
        k(  202) = (   0.4000000  -0.0000000   0.2000000), wk =   0.0040000
        k(  203) = (   0.4000000  -0.0000000   0.4000000), wk =   0.0040000
        k(  204) = (   0.4000000  -0.0000000  -0.4000000), wk =   0.0040000
        k(  205) = (   0.4000000  -0.0000000  -0.2000000), wk =   0.0040000
        k(  206) = (   0.4000000   0.1000000   0.0000000), wk =   0.0040000
        k(  207) = (   0.4000000   0.1000000   0.2000000), wk =   0.0040000
        k(  208) = (   0.4000000   0.1000000   0.4000000), wk =   0.0040000
        k(  209) = (   0.4000000   0.1000000  -0.4000000), wk =   0.0040000
        k(  210) = (   0.4000000   0.1000000  -0.2000000), wk =   0.0040000
        k(  211) = (   0.4000000   0.2000000   0.0000000), wk =   0.0040000
        k(  212) = (   0.4000000   0.2000000   0.2000000), wk =   0.0040000
        k(  213) = (   0.4000000   0.2000000   0.4000000), wk =   0.0040000
        k(  214) = (   0.4000000   0.2000000  -0.4000000), wk =   0.0040000
        k(  215) = (   0.4000000   0.2000000  -0.2000000), wk =   0.0040000
        k(  216) = (   0.4000000   0.3000000   0.0000000), wk =   0.0040000
        k(  217) = (   0.4000000   0.3000000   0.2000000), wk =   0.0040000
        k(  218) = (   0.4000000   0.3000000   0.4000000), wk =   0.0040000
        k(  219) = (   0.4000000   0.3000000  -0.4000000), wk =   0.0040000
        k(  220) = (   0.4000000   0.3000000  -0.2000000), wk =   0.0040000
        k(  221) = (   0.4000000   0.4000000   0.0000000), wk =   0.0040000
        k(  222) = (   0.4000000   0.4000000   0.2000000), wk =   0.0040000
        k(  223) = (   0.4000000   0.4000000   0.4000000), wk =   0.0040000
        k(  224) = (   0.4000000   0.4000000  -0.4000000), wk =   0.0040000
        k(  225) = (   0.4000000   0.4000000  -0.2000000), wk =   0.0040000
        k(  226) = (   0.4000000  -0.5000000   0.0000000), wk =   0.0040000
        k(  227) = (   0.4000000  -0.5000000   0.2000000), wk =   0.0040000
        k(  228) = (   0.4000000  -0.5000000   0.4000000), wk =   0.0040000
        k(  229) = (   0.4000000  -0.5000000  -0.4000000), wk =   0.0040000
        k(  230) = (   0.4000000  -0.5000000  -0.2000000), wk =   0.0040000
        k(  231) = (   0.4000000  -0.4000000   0.0000000), wk =   0.0040000
        k(  232) = (   0.4000000  -0.4000000   0.2000000), wk =   0.0040000
        k(  233) = (   0.4000000  -0.4000000   0.4000000), wk =   0.0040000
        k(  234) = (   0.4000000  -0.4000000  -0.4000000), wk =   0.0040000
        k(  235) = (   0.4000000  -0.4000000  -0.2000000), wk =   0.0040000
        k(  236) = (   0.4000000  -0.3000000   0.0000000), wk =   0.0040000
        k(  237) = (   0.4000000  -0.3000000   0.2000000), wk =   0.0040000
        k(  238) = (   0.4000000  -0.3000000   0.4000000), wk =   0.0040000
        k(  239) = (   0.4000000  -0.3000000  -0.4000000), wk =   0.0040000
        k(  240) = (   0.4000000  -0.3000000  -0.2000000), wk =   0.0040000
        k(  241) = (   0.4000000  -0.2000000   0.0000000), wk =   0.0040000
        k(  242) = (   0.4000000  -0.2000000   0.2000000), wk =   0.0040000
        k(  243) = (   0.4000000  -0.2000000   0.4000000), wk =   0.0040000
        k(  244) = (   0.4000000  -0.2000000  -0.4000000), wk =   0.0040000
        k(  245) = (   0.4000000  -0.2000000  -0.2000000), wk =   0.0040000
        k(  246) = (   0.4000000  -0.1000000   0.0000000), wk =   0.0040000
        k(  247) = (   0.4000000  -0.1000000   0.2000000), wk =   0.0040000
        k(  248) = (   0.4000000  -0.1000000   0.4000000), wk =   0.0040000
        k(  249) = (   0.4000000  -0.1000000  -0.4000000), wk =   0.0040000
        k(  250) = (   0.4000000  -0.1000000  -0.2000000), wk =   0.0040000
        k(  251) = (  -0.5000000   0.0000000   0.0000000), wk =   0.0040000
        k(  252) = (  -0.5000000   0.0000000   0.2000000), wk =   0.0040000
        k(  253) = (  -0.5000000   0.0000000   0.4000000), wk =   0.0040000
        k(  254) = (  -0.5000000   0.0000000  -0.4000000), wk =   0.0040000
        k(  255) = (  -0.5000000   0.0000000  -0.2000000), wk =   0.0040000
        k(  256) = (  -0.5000000   0.1000000   0.0000000), wk =   0.0040000
        k(  257) = (  -0.5000000   0.1000000   0.2000000), wk =   0.0040000
        k(  258) = (  -0.5000000   0.1000000   0.4000000), wk =   0.0040000
        k(  259) = (  -0.5000000   0.1000000  -0.4000000), wk =   0.0040000
        k(  260) = (  -0.5000000   0.1000000  -0.2000000), wk =   0.0040000
        k(  261) = (  -0.5000000   0.2000000   0.0000000), wk =   0.0040000
        k(  262) = (  -0.5000000   0.2000000   0.2000000), wk =   0.0040000
        k(  263) = (  -0.5000000   0.2000000   0.4000000), wk =   0.0040000
        k(  264) = (  -0.5000000   0.2000000  -0.4000000), wk =   0.0040000
        k(  265) = (  -0.5000000   0.2000000  -0.2000000), wk =   0.0040000
        k(  266) = (  -0.5000000   0.3000000   0.0000000), wk =   0.0040000
        k(  267) = (  -0.5000000   0.3000000   0.2000000), wk =   0.0040000
        k(  268) = (  -0.5000000   0.3000000   0.4000000), wk =   0.0040000
        k(  269) = (  -0.5000000   0.3000000  -0.4000000), wk =   0.0040000
        k(  270) = (  -0.5000000   0.3000000  -0.2000000), wk =   0.0040000
        k(  271) = (  -0.5000000   0.4000000   0.0000000), wk =   0.0040000
        k(  272) = (  -0.5000000   0.4000000   0.2000000), wk =   0.0040000
        k(  273) = (  -0.5000000   0.4000000   0.4000000), wk =   0.0040000
        k(  274) = (  -0.5000000   0.4000000  -0.4000000), wk =   0.0040000
        k(  275) = (  -0.5000000   0.4000000  -0.2000000), wk =   0.0040000
        k(  276) = (  -0.5000000  -0.5000000   0.0000000), wk =   0.0040000
        k(  277) = (  -0.5000000  -0.5000000   0.2000000), wk =   0.0040000
        k(  278) = (  -0.5000000  -0.5000000   0.4000000), wk =   0.0040000
        k(  279) = (  -0.5000000  -0.5000000  -0.4000000), wk =   0.0040000
        k(  280) = (  -0.5000000  -0.5000000  -0.2000000), wk =   0.0040000
        k(  281) = (  -0.5000000  -0.4000000   0.0000000), wk =   0.0040000
        k(  282) = (  -0.5000000  -0.4000000   0.2000000), wk =   0.0040000
        k(  283) = (  -0.5000000  -0.4000000   0.4000000), wk =   0.0040000
        k(  284) = (  -0.5000000  -0.4000000  -0.4000000), wk =   0.0040000
        k(  285) = (  -0.5000000  -0.4000000  -0.2000000), wk =   0.0040000
        k(  286) = (  -0.5000000  -0.3000000   0.0000000), wk =   0.0040000
        k(  287) = (  -0.5000000  -0.3000000   0.2000000), wk =   0.0040000
        k(  288) = (  -0.5000000  -0.3000000   0.4000000), wk =   0.0040000
        k(  289) = (  -0.5000000  -0.3000000  -0.4000000), wk =   0.0040000
        k(  290) = (  -0.5000000  -0.3000000  -0.2000000), wk =   0.0040000
        k(  291) = (  -0.5000000  -0.2000000   0.0000000), wk =   0.0040000
        k(  292) = (  -0.5000000  -0.2000000   0.2000000), wk =   0.0040000
        k(  293) = (  -0.5000000  -0.2000000   0.4000000), wk =   0.0040000
        k(  294) = (  -0.5000000  -0.2000000  -0.4000000), wk =   0.0040000
        k(  295) = (  -0.5000000  -0.2000000  -0.2000000), wk =   0.0040000
        k(  296) = (  -0.5000000  -0.1000000   0.0000000), wk =   0.0040000
        k(  297) = (  -0.5000000  -0.1000000   0.2000000), wk =   0.0040000
        k(  298) = (  -0.5000000  -0.1000000   0.4000000), wk =   0.0040000
        k(  299) = (  -0.5000000  -0.1000000  -0.4000000), wk =   0.0040000
        k(  300) = (  -0.5000000  -0.1000000  -0.2000000), wk =   0.0040000
        k(  301) = (  -0.4000000   0.0000000   0.0000000), wk =   0.0040000
        k(  302) = (  -0.4000000   0.0000000   0.2000000), wk =   0.0040000
        k(  303) = (  -0.4000000   0.0000000   0.4000000), wk =   0.0040000
        k(  304) = (  -0.4000000   0.0000000  -0.4000000), wk =   0.0040000
        k(  305) = (  -0.4000000   0.0000000  -0.2000000), wk =   0.0040000
        k(  306) = (  -0.4000000   0.1000000   0.0000000), wk =   0.0040000
        k(  307) = (  -0.4000000   0.1000000   0.2000000), wk =   0.0040000
        k(  308) = (  -0.4000000   0.1000000   0.4000000), wk =   0.0040000
        k(  309) = (  -0.4000000   0.1000000  -0.4000000), wk =   0.0040000
        k(  310) = (  -0.4000000   0.1000000  -0.2000000), wk =   0.0040000
        k(  311) = (  -0.4000000   0.2000000   0.0000000), wk =   0.0040000
        k(  312) = (  -0.4000000   0.2000000   0.2000000), wk =   0.0040000
        k(  313) = (  -0.4000000   0.2000000   0.4000000), wk =   0.0040000
        k(  314) = (  -0.4000000   0.2000000  -0.4000000), wk =   0.0040000
        k(  315) = (  -0.4000000   0.2000000  -0.2000000), wk =   0.0040000
        k(  316) = (  -0.4000000   0.3000000   0.0000000), wk =   0.0040000
        k(  317) = (  -0.4000000   0.3000000   0.2000000), wk =   0.0040000
        k(  318) = (  -0.4000000   0.3000000   0.4000000), wk =   0.0040000
        k(  319) = (  -0.4000000   0.3000000  -0.4000000), wk =   0.0040000
        k(  320) = (  -0.4000000   0.3000000  -0.2000000), wk =   0.0040000
        k(  321) = (  -0.4000000   0.4000000   0.0000000), wk =   0.0040000
        k(  322) = (  -0.4000000   0.4000000   0.2000000), wk =   0.0040000
        k(  323) = (  -0.4000000   0.4000000   0.4000000), wk =   0.0040000
        k(  324) = (  -0.4000000   0.4000000  -0.4000000), wk =   0.0040000
        k(  325) = (  -0.4000000   0.4000000  -0.2000000), wk =   0.0040000
        k(  326) = (  -0.4000000  -0.5000000   0.0000000), wk =   0.0040000
        k(  327) = (  -0.4000000  -0.5000000   0.2000000), wk =   0.0040000
        k(  328) = (  -0.4000000  -0.5000000   0.4000000), wk =   0.0040000
        k(  329) = (  -0.4000000  -0.5000000  -0.4000000), wk =   0.0040000
        k(  330) = (  -0.4000000  -0.5000000  -0.2000000), wk =   0.0040000
        k(  331) = (  -0.4000000  -0.4000000   0.0000000), wk =   0.0040000
        k(  332) = (  -0.4000000  -0.4000000   0.2000000), wk =   0.0040000
        k(  333) = (  -0.4000000  -0.4000000   0.4000000), wk =   0.0040000
        k(  334) = (  -0.4000000  -0.4000000  -0.4000000), wk =   0.0040000
        k(  335) = (  -0.4000000  -0.4000000  -0.2000000), wk =   0.0040000
        k(  336) = (  -0.4000000  -0.3000000   0.0000000), wk =   0.0040000
        k(  337) = (  -0.4000000  -0.3000000   0.2000000), wk =   0.0040000
        k(  338) = (  -0.4000000  -0.3000000   0.4000000), wk =   0.0040000
        k(  339) = (  -0.4000000  -0.3000000  -0.4000000), wk =   0.0040000
        k(  340) = (  -0.4000000  -0.3000000  -0.2000000), wk =   0.0040000
        k(  341) = (  -0.4000000  -0.2000000   0.0000000), wk =   0.0040000
        k(  342) = (  -0.4000000  -0.2000000   0.2000000), wk =   0.0040000
        k(  343) = (  -0.4000000  -0.2000000   0.4000000), wk =   0.0040000
        k(  344) = (  -0.4000000  -0.2000000  -0.4000000), wk =   0.0040000
        k(  345) = (  -0.4000000  -0.2000000  -0.2000000), wk =   0.0040000
        k(  346) = (  -0.4000000  -0.1000000   0.0000000), wk =   0.0040000
        k(  347) = (  -0.4000000  -0.1000000   0.2000000), wk =   0.0040000
        k(  348) = (  -0.4000000  -0.1000000   0.4000000), wk =   0.0040000
        k(  349) = (  -0.4000000  -0.1000000  -0.4000000), wk =   0.0040000
        k(  350) = (  -0.4000000  -0.1000000  -0.2000000), wk =   0.0040000
        k(  351) = (  -0.3000000   0.0000000   0.0000000), wk =   0.0040000
        k(  352) = (  -0.3000000   0.0000000   0.2000000), wk =   0.0040000
        k(  353) = (  -0.3000000   0.0000000   0.4000000), wk =   0.0040000
        k(  354) = (  -0.3000000   0.0000000  -0.4000000), wk =   0.0040000
        k(  355) = (  -0.3000000   0.0000000  -0.2000000), wk =   0.0040000
        k(  356) = (  -0.3000000   0.1000000   0.0000000), wk =   0.0040000
        k(  357) = (  -0.3000000   0.1000000   0.2000000), wk =   0.0040000
        k(  358) = (  -0.3000000   0.1000000   0.4000000), wk =   0.0040000
        k(  359) = (  -0.3000000   0.1000000  -0.4000000), wk =   0.0040000
        k(  360) = (  -0.3000000   0.1000000  -0.2000000), wk =   0.0040000
        k(  361) = (  -0.3000000   0.2000000   0.0000000), wk =   0.0040000
        k(  362) = (  -0.3000000   0.2000000   0.2000000), wk =   0.0040000
        k(  363) = (  -0.3000000   0.2000000   0.4000000), wk =   0.0040000
        k(  364) = (  -0.3000000   0.2000000  -0.4000000), wk =   0.0040000
        k(  365) = (  -0.3000000   0.2000000  -0.2000000), wk =   0.0040000
        k(  366) = (  -0.3000000   0.3000000   0.0000000), wk =   0.0040000
        k(  367) = (  -0.3000000   0.3000000   0.2000000), wk =   0.0040000
        k(  368) = (  -0.3000000   0.3000000   0.4000000), wk =   0.0040000
        k(  369) = (  -0.3000000   0.3000000  -0.4000000), wk =   0.0040000
        k(  370) = (  -0.3000000   0.3000000  -0.2000000), wk =   0.0040000
        k(  371) = (  -0.3000000   0.4000000   0.0000000), wk =   0.0040000
        k(  372) = (  -0.3000000   0.4000000   0.2000000), wk =   0.0040000
        k(  373) = (  -0.3000000   0.4000000   0.4000000), wk =   0.0040000
        k(  374) = (  -0.3000000   0.4000000  -0.4000000), wk =   0.0040000
        k(  375) = (  -0.3000000   0.4000000  -0.2000000), wk =   0.0040000
        k(  376) = (  -0.3000000  -0.5000000   0.0000000), wk =   0.0040000
        k(  377) = (  -0.3000000  -0.5000000   0.2000000), wk =   0.0040000
        k(  378) = (  -0.3000000  -0.5000000   0.4000000), wk =   0.0040000
        k(  379) = (  -0.3000000  -0.5000000  -0.4000000), wk =   0.0040000
        k(  380) = (  -0.3000000  -0.5000000  -0.2000000), wk =   0.0040000
        k(  381) = (  -0.3000000  -0.4000000   0.0000000), wk =   0.0040000
        k(  382) = (  -0.3000000  -0.4000000   0.2000000), wk =   0.0040000
        k(  383) = (  -0.3000000  -0.4000000   0.4000000), wk =   0.0040000
        k(  384) = (  -0.3000000  -0.4000000  -0.4000000), wk =   0.0040000
        k(  385) = (  -0.3000000  -0.4000000  -0.2000000), wk =   0.0040000
        k(  386) = (  -0.3000000  -0.3000000   0.0000000), wk =   0.0040000
        k(  387) = (  -0.3000000  -0.3000000   0.2000000), wk =   0.0040000
        k(  388) = (  -0.3000000  -0.3000000   0.4000000), wk =   0.0040000
        k(  389) = (  -0.3000000  -0.3000000  -0.4000000), wk =   0.0040000
        k(  390) = (  -0.3000000  -0.3000000  -0.2000000), wk =   0.0040000
        k(  391) = (  -0.3000000  -0.2000000   0.0000000), wk =   0.0040000
        k(  392) = (  -0.3000000  -0.2000000   0.2000000), wk =   0.0040000
        k(  393) = (  -0.3000000  -0.2000000   0.4000000), wk =   0.0040000
        k(  394) = (  -0.3000000  -0.2000000  -0.4000000), wk =   0.0040000
        k(  395) = (  -0.3000000  -0.2000000  -0.2000000), wk =   0.0040000
        k(  396) = (  -0.3000000  -0.1000000   0.0000000), wk =   0.0040000
        k(  397) = (  -0.3000000  -0.1000000   0.2000000), wk =   0.0040000
        k(  398) = (  -0.3000000  -0.1000000   0.4000000), wk =   0.0040000
        k(  399) = (  -0.3000000  -0.1000000  -0.4000000), wk =   0.0040000
        k(  400) = (  -0.3000000  -0.1000000  -0.2000000), wk =   0.0040000
        k(  401) = (  -0.2000000   0.0000000   0.0000000), wk =   0.0040000
        k(  402) = (  -0.2000000   0.0000000   0.2000000), wk =   0.0040000
        k(  403) = (  -0.2000000   0.0000000   0.4000000), wk =   0.0040000
        k(  404) = (  -0.2000000   0.0000000  -0.4000000), wk =   0.0040000
        k(  405) = (  -0.2000000   0.0000000  -0.2000000), wk =   0.0040000
        k(  406) = (  -0.2000000   0.1000000   0.0000000), wk =   0.0040000
        k(  407) = (  -0.2000000   0.1000000   0.2000000), wk =   0.0040000
        k(  408) = (  -0.2000000   0.1000000   0.4000000), wk =   0.0040000
        k(  409) = (  -0.2000000   0.1000000  -0.4000000), wk =   0.0040000
        k(  410) = (  -0.2000000   0.1000000  -0.2000000), wk =   0.0040000
        k(  411) = (  -0.2000000   0.2000000   0.0000000), wk =   0.0040000
        k(  412) = (  -0.2000000   0.2000000   0.2000000), wk =   0.0040000
        k(  413) = (  -0.2000000   0.2000000   0.4000000), wk =   0.0040000
        k(  414) = (  -0.2000000   0.2000000  -0.4000000), wk =   0.0040000
        k(  415) = (  -0.2000000   0.2000000  -0.2000000), wk =   0.0040000
        k(  416) = (  -0.2000000   0.3000000   0.0000000), wk =   0.0040000
        k(  417) = (  -0.2000000   0.3000000   0.2000000), wk =   0.0040000
        k(  418) = (  -0.2000000   0.3000000   0.4000000), wk =   0.0040000
        k(  419) = (  -0.2000000   0.3000000  -0.4000000), wk =   0.0040000
        k(  420) = (  -0.2000000   0.3000000  -0.2000000), wk =   0.0040000
        k(  421) = (  -0.2000000   0.4000000   0.0000000), wk =   0.0040000
        k(  422) = (  -0.2000000   0.4000000   0.2000000), wk =   0.0040000
        k(  423) = (  -0.2000000   0.4000000   0.4000000), wk =   0.0040000
        k(  424) = (  -0.2000000   0.4000000  -0.4000000), wk =   0.0040000
        k(  425) = (  -0.2000000   0.4000000  -0.2000000), wk =   0.0040000
        k(  426) = (  -0.2000000  -0.5000000   0.0000000), wk =   0.0040000
        k(  427) = (  -0.2000000  -0.5000000   0.2000000), wk =   0.0040000
        k(  428) = (  -0.2000000  -0.5000000   0.4000000), wk =   0.0040000
        k(  429) = (  -0.2000000  -0.5000000  -0.4000000), wk =   0.0040000
        k(  430) = (  -0.2000000  -0.5000000  -0.2000000), wk =   0.0040000
        k(  431) = (  -0.2000000  -0.4000000   0.0000000), wk =   0.0040000
        k(  432) = (  -0.2000000  -0.4000000   0.2000000), wk =   0.0040000
        k(  433) = (  -0.2000000  -0.4000000   0.4000000), wk =   0.0040000
        k(  434) = (  -0.2000000  -0.4000000  -0.4000000), wk =   0.0040000
        k(  435) = (  -0.2000000  -0.4000000  -0.2000000), wk =   0.0040000
        k(  436) = (  -0.2000000  -0.3000000   0.0000000), wk =   0.0040000
        k(  437) = (  -0.2000000  -0.3000000   0.2000000), wk =   0.0040000
        k(  438) = (  -0.2000000  -0.3000000   0.4000000), wk =   0.0040000
        k(  439) = (  -0.2000000  -0.3000000  -0.4000000), wk =   0.0040000
        k(  440) = (  -0.2000000  -0.3000000  -0.2000000), wk =   0.0040000
        k(  441) = (  -0.2000000  -0.2000000   0.0000000), wk =   0.0040000
        k(  442) = (  -0.2000000  -0.2000000   0.2000000), wk =   0.0040000
        k(  443) = (  -0.2000000  -0.2000000   0.4000000), wk =   0.0040000
        k(  444) = (  -0.2000000  -0.2000000  -0.4000000), wk =   0.0040000
        k(  445) = (  -0.2000000  -0.2000000  -0.2000000), wk =   0.0040000
        k(  446) = (  -0.2000000  -0.1000000   0.0000000), wk =   0.0040000
        k(  447) = (  -0.2000000  -0.1000000   0.2000000), wk =   0.0040000
        k(  448) = (  -0.2000000  -0.1000000   0.4000000), wk =   0.0040000
        k(  449) = (  -0.2000000  -0.1000000  -0.4000000), wk =   0.0040000
        k(  450) = (  -0.2000000  -0.1000000  -0.2000000), wk =   0.0040000
        k(  451) = (  -0.1000000   0.0000000   0.0000000), wk =   0.0040000
        k(  452) = (  -0.1000000   0.0000000   0.2000000), wk =   0.0040000
        k(  453) = (  -0.1000000   0.0000000   0.4000000), wk =   0.0040000
        k(  454) = (  -0.1000000   0.0000000  -0.4000000), wk =   0.0040000
        k(  455) = (  -0.1000000   0.0000000  -0.2000000), wk =   0.0040000
        k(  456) = (  -0.1000000   0.1000000   0.0000000), wk =   0.0040000
        k(  457) = (  -0.1000000   0.1000000   0.2000000), wk =   0.0040000
        k(  458) = (  -0.1000000   0.1000000   0.4000000), wk =   0.0040000
        k(  459) = (  -0.1000000   0.1000000  -0.4000000), wk =   0.0040000
        k(  460) = (  -0.1000000   0.1000000  -0.2000000), wk =   0.0040000
        k(  461) = (  -0.1000000   0.2000000   0.0000000), wk =   0.0040000
        k(  462) = (  -0.1000000   0.2000000   0.2000000), wk =   0.0040000
        k(  463) = (  -0.1000000   0.2000000   0.4000000), wk =   0.0040000
        k(  464) = (  -0.1000000   0.2000000  -0.4000000), wk =   0.0040000
        k(  465) = (  -0.1000000   0.2000000  -0.2000000), wk =   0.0040000
        k(  466) = (  -0.1000000   0.3000000   0.0000000), wk =   0.0040000
        k(  467) = (  -0.1000000   0.3000000   0.2000000), wk =   0.0040000
        k(  468) = (  -0.1000000   0.3000000   0.4000000), wk =   0.0040000
        k(  469) = (  -0.1000000   0.3000000  -0.4000000), wk =   0.0040000
        k(  470) = (  -0.1000000   0.3000000  -0.2000000), wk =   0.0040000
        k(  471) = (  -0.1000000   0.4000000   0.0000000), wk =   0.0040000
        k(  472) = (  -0.1000000   0.4000000   0.2000000), wk =   0.0040000
        k(  473) = (  -0.1000000   0.4000000   0.4000000), wk =   0.0040000
        k(  474) = (  -0.1000000   0.4000000  -0.4000000), wk =   0.0040000
        k(  475) = (  -0.1000000   0.4000000  -0.2000000), wk =   0.0040000
        k(  476) = (  -0.1000000  -0.5000000   0.0000000), wk =   0.0040000
        k(  477) = (  -0.1000000  -0.5000000   0.2000000), wk =   0.0040000
        k(  478) = (  -0.1000000  -0.5000000   0.4000000), wk =   0.0040000
        k(  479) = (  -0.1000000  -0.5000000  -0.4000000), wk =   0.0040000
        k(  480) = (  -0.1000000  -0.5000000  -0.2000000), wk =   0.0040000
        k(  481) = (  -0.1000000  -0.4000000   0.0000000), wk =   0.0040000
        k(  482) = (  -0.1000000  -0.4000000   0.2000000), wk =   0.0040000
        k(  483) = (  -0.1000000  -0.4000000   0.4000000), wk =   0.0040000
        k(  484) = (  -0.1000000  -0.4000000  -0.4000000), wk =   0.0040000
        k(  485) = (  -0.1000000  -0.4000000  -0.2000000), wk =   0.0040000
        k(  486) = (  -0.1000000  -0.3000000   0.0000000), wk =   0.0040000
        k(  487) = (  -0.1000000  -0.3000000   0.2000000), wk =   0.0040000
[...]
     0.0000   0.0000   0.0000   0.0000   0.0000   0.0000   0.0000   0.0000
     0.0000   0.0000   0.0000   0.0000   0.0000   0.0000   0.0000   0.0000
     0.0000   0.0000   0.0000   0.0000   0.0000   0.0000   0.0000   0.0000

          k =-0.1000-0.4041 0.2423 (  4840 PWs)   bands (ev):

    -5.5935  -5.0622  -1.8789  -1.1797   2.0580   2.6190   2.9037   3.4326
     6.3326   7.1598   8.0840   8.8399  10.1370  11.3096  11.6975  12.4934
    13.6944  15.0972  15.2916  16.1936  16.2622  17.4439  18.6187  18.9442
    20.0377  20.2777  20.4480  21.3274  21.6702  22.3176  22.6665  23.4068
    23.7912  24.2326  24.9027  26.4958  27.0970  27.2769  27.6338  28.1586

     occupation numbers 
     1.0000   1.0000   1.0000   1.0000   1.0000   1.0000   1.0000   1.0000
     0.0000   0.0000   0.0000   0.0000   0.0000   0.0000   0.0000   0.0000
     0.0000   0.0000   0.0000   0.0000   0.0000   0.0000   0.0000   0.0000
     0.0000   0.0000   0.0000   0.0000   0.0000   0.0000   0.0000   0.0000
     0.0000   0.0000   0.0000   0.0000   0.0000   0.0000   0.0000   0.0000

          k =-0.1000-0.4041-0.2423 (  4840 PWs)   bands (ev):

    -5.5935  -5.0622  -1.8789  -1.1797   2.0580   2.6190   2.9037   3.4326
     6.3326   7.1598   8.0840   8.8399  10.1370  11.3096  11.6975  12.4934
    13.6944  15.0972  15.2916  16.1936  16.2622  17.4439  18.6187  18.9442
    20.0377  20.2777  20.4480  21.3274  21.6702  22.3176  22.6665  23.4068
    23.7912  24.2326  24.9027  26.4958  27.0970  27.2770  27.6339  28.1586

     occupation numbers 
     1.0000   1.0000   1.0000   1.0000   1.0000   1.0000   1.0000   1.0000
     0.0000   0.0000   0.0000   0.0000   0.0000   0.0000   0.0000   0.0000
     0.0000   0.0000   0.0000   0.0000   0.0000   0.0000   0.0000   0.0000
     0.0000   0.0000   0.0000   0.0000   0.0000   0.0000   0.0000   0.0000
     0.0000   0.0000   0.0000   0.0000   0.0000   0.0000   0.0000   0.0000

          k =-0.1000-0.4041-0.1212 (  4837 PWs)   bands (ev):

    -5.9288  -4.4072  -2.5438  -0.5110   1.1465   2.2155   3.4559   3.6516
     6.4934   7.2915   8.6054   8.9233  10.3226  10.7432  12.2962  12.4761
    13.7777  13.9049  15.1302  15.8527  16.3903  17.3569  18.0529  19.2378
    19.6714  20.1391  20.5449  21.6332  21.8908  22.3779  22.8537  23.5044
    23.9840  24.8806  25.3205  25.8043  26.2789  27.5380  28.2966  28.9956

     occupation numbers 
     1.0000   1.0000   1.0000   1.0000   1.0000   1.0000   1.0000   1.0000
     0.0000   0.0000   0.0000   0.0000   0.0000   0.0000   0.0000   0.0000
     0.0000   0.0000   0.0000   0.0000   0.0000   0.0000   0.0000   0.0000
     0.0000   0.0000   0.0000   0.0000   0.0000   0.0000   0.0000   0.0000
     0.0000   0.0000   0.0000   0.0000   0.0000   0.0000   0.0000   0.0000

          k =-0.1000-0.2887 0.0000 (  4824 PWs)   bands (ev):

    -6.6209  -4.5776  -2.4061   1.0883   1.1763   2.5217   4.1164   4.2081
     7.0019   7.5317   8.4637   9.0251   9.1788  10.8108  11.0467  12.3824
    13.0469  13.5215  13.7043  14.5421  16.3814  16.9930  18.2081  18.4314
    18.6915  19.4463  20.4421  20.8163  22.1255  22.8153  22.8188  24.2776
    24.5743  25.2556  25.7365  26.7292  26.7882  27.8984  28.3300  28.6105

     occupation numbers 
     1.0000   1.0000   1.0000   1.0000   1.0000   1.0000   1.0000   1.0000
     0.0000   0.0000   0.0000   0.0000   0.0000   0.0000   0.0000   0.0000
     0.0000   0.0000   0.0000   0.0000   0.0000   0.0000   0.0000   0.0000
     0.0000   0.0000   0.0000   0.0000   0.0000   0.0000   0.0000   0.0000
     0.0000   0.0000   0.0000   0.0000   0.0000   0.0000   0.0000   0.0000

          k =-0.1000-0.2887 0.1212 (  4840 PWs)   bands (ev):

    -6.5038  -4.9631  -1.9174   0.7702   1.3426   2.6512   3.9489   4.1432
     6.5625   7.5459   8.6689   9.0148   9.5579  10.3959  11.7395  12.0855
    12.7264  13.0702  14.2554  14.9994  16.5439  17.0832  17.6424  17.7559
    19.2744  19.6447  20.9588  21.3242  21.6706  22.3088  22.9435  23.5415
    24.8216  25.2291  25.4830  26.5131  27.1480  27.7492  28.0990  28.4766

     occupation numbers 
     1.0000   1.0000   1.0000   1.0000   1.0000   1.0000   1.0000   1.0000
     0.0000   0.0000   0.0000   0.0000   0.0000   0.0000   0.0000   0.0000
     0.0000   0.0000   0.0000   0.0000   0.0000   0.0000   0.0000   0.0000
     0.0000   0.0000   0.0000   0.0000   0.0000   0.0000   0.0000   0.0000
     0.0000   0.0000   0.0000   0.0000   0.0000   0.0000   0.0000   0.0000

          k =-0.1000-0.2887 0.2423 (  4841 PWs)   bands (ev):

    -6.1592  -5.6145  -0.9950  -0.0569   2.1034   2.9889   3.2304   3.5036
     6.9136   7.6860   8.3374   9.2143   9.7415  10.5344  10.7429  11.7647
    13.3667  13.9371  14.5782  15.4565  15.8293  16.5252  17.6551  18.2971
    18.7178  20.0589  20.6992  21.3827  22.1541  22.4054  22.6975  23.9586
    24.3211  24.6356  25.4289  26.2822  26.6106  27.5633  27.8580  29.5569

     occupation numbers 
     1.0000   1.0000   1.0000   1.0000   1.0000   1.0000   1.0000   1.0000
     0.0000   0.0000   0.0000   0.0000   0.0000   0.0000   0.0000   0.0000
     0.0000   0.0000   0.0000   0.0000   0.0000   0.0000   0.0000   0.0000
     0.0000   0.0000   0.0000   0.0000   0.0000   0.0000   0.0000   0.0000
     0.0000   0.0000   0.0000   0.0000   0.0000   0.0000   0.0000   0.0000

          k =-0.1000-0.2887-0.2423 (  4841 PWs)   bands (ev):

    -6.1592  -5.6145  -0.9950  -0.0569   2.1034   2.9889   3.2304   3.5036
     6.9136   7.6860   8.3374   9.2143   9.7415  10.5344  10.7429  11.7647
    13.3667  13.9371  14.5782  15.4565  15.8293  16.5252  17.6551  18.2971
    18.7178  20.0589  20.6992  21.3827  22.1541  22.4054  22.6975  23.9586
    24.3211  24.6356  25.4289  26.2822  26.6106  27.5633  27.8580  29.5570

     occupation numbers 
     1.0000   1.0000   1.0000   1.0000   1.0000   1.0000   1.0000   1.0000
     0.0000   0.0000   0.0000   0.0000   0.0000   0.0000   0.0000   0.0000
     0.0000   0.0000   0.0000   0.0000   0.0000   0.0000   0.0000   0.0000
     0.0000   0.0000   0.0000   0.0000   0.0000   0.0000   0.0000   0.0000
     0.0000   0.0000   0.0000   0.0000   0.0000   0.0000   0.0000   0.0000

          k =-0.1000-0.2887-0.1212 (  4840 PWs)   bands (ev):

    -6.5038  -4.9631  -1.9174   0.7702   1.3426   2.6512   3.9489   4.1432
     6.5625   7.5459   8.6689   9.0148   9.5579  10.3959  11.7395  12.0855
    12.7264  13.0702  14.2554  14.9994  16.5439  17.0832  17.6424  17.7559
    19.2744  19.6447  20.9588  21.3242  21.6706  22.3088  22.9435  23.5415
    24.8216  25.2291  25.4830  26.5131  27.1480  27.7492  28.0990  28.4767

     occupation numbers 
     1.0000   1.0000   1.0000   1.0000   1.0000   1.0000   1.0000   1.0000
     0.0000   0.0000   0.0000   0.0000   0.0000   0.0000   0.0000   0.0000
     0.0000   0.0000   0.0000   0.0000   0.0000   0.0000   0.0000   0.0000
     0.0000   0.0000   0.0000   0.0000   0.0000   0.0000   0.0000   0.0000
     0.0000   0.0000   0.0000   0.0000   0.0000   0.0000   0.0000   0.0000

          k =-0.1000-0.1732 0.0000 (  4847 PWs)   bands (ev):

    -7.0333  -5.0132  -2.2096   1.9178   2.6041   3.1901   4.7225   4.8327
     6.9297   7.0863   7.6853   8.7548   9.0568   9.9265  11.3314  11.5134
    12.0089  13.0351  13.8544  14.4529  15.2872  16.8627  17.1448  17.3098
    18.7901  19.1547  19.8812  20.1784  22.4553  22.7035  23.4246  24.3356
    24.9970  25.3540  26.3804  26.9306  27.6580  27.9324  28.0367  28.4915

     occupation numbers 
     1.0000   1.0000   1.0000   1.0000   1.0000   1.0000   1.0100   1.0323
     0.0000   0.0000   0.0000   0.0000   0.0000   0.0000   0.0000   0.0000
     0.0000   0.0000   0.0000   0.0000   0.0000   0.0000   0.0000   0.0000
     0.0000   0.0000   0.0000   0.0000   0.0000   0.0000   0.0000   0.0000
     0.0000   0.0000   0.0000   0.0000   0.0000   0.0000   0.0000   0.0000

          k =-0.1000-0.1732 0.1212 (  4855 PWs)   bands (ev):

    -6.9152  -5.3776  -1.6484   2.0403   2.0821   3.3123   4.4145   4.5937
     6.9126   7.0648   8.4075   8.8255   9.0396   9.5540  11.2078  12.0425
    12.2738  13.1261  13.4773  14.4650  15.7041  16.3170  16.9513  17.6073
    18.0854  19.0023  20.4492  20.4501  22.0655  22.1216  23.7082  24.3387
    24.7715  25.7232  26.0431  27.1215  27.3030  28.3872  28.4753  29.2883

     occupation numbers 
     1.0000   1.0000   1.0000   1.0000   1.0000   1.0000   1.0001   1.0016
     0.0000   0.0000   0.0000   0.0000   0.0000   0.0000   0.0000   0.0000
     0.0000   0.0000   0.0000   0.0000   0.0000   0.0000   0.0000   0.0000
     0.0000   0.0000   0.0000   0.0000   0.0000   0.0000   0.0000   0.0000
     0.0000   0.0000   0.0000   0.0000   0.0000   0.0000   0.0000   0.0000

          k =-0.1000-0.1732 0.2423 (  4844 PWs)   bands (ev):

    -6.5678  -6.0208  -0.4528   0.8785   2.5865   3.4394   3.6311   4.1002
     7.4115   7.5730   8.1427   8.7183   9.7066   9.7667  10.5433  11.1703
    13.3735  13.3746  14.4916  14.5403  15.1521  16.2037  16.7142  16.9672
    18.2740  19.0262  19.1584  20.4583  21.8991  22.6559  23.3282  24.7299
    25.4757  25.7206  25.8795  27.6255  27.8915  28.7373  28.8927  28.8988

     occupation numbers 
     1.0000   1.0000   1.0000   1.0000   1.0000   1.0000   1.0000   1.0000
     0.0000   0.0000   0.0000   0.0000   0.0000   0.0000   0.0000   0.0000
     0.0000   0.0000   0.0000   0.0000   0.0000   0.0000   0.0000   0.0000
     0.0000   0.0000   0.0000   0.0000   0.0000   0.0000   0.0000   0.0000
     0.0000   0.0000   0.0000   0.0000   0.0000   0.0000   0.0000   0.0000

          k =-0.1000-0.1732-0.2423 (  4844 PWs)   bands (ev):

    -6.5678  -6.0208  -0.4528   0.8785   2.5865   3.4394   3.6311   4.1002
     7.4115   7.5730   8.1427   8.7183   9.7066   9.7667  10.5433  11.1703
    13.3735  13.3746  14.4916  14.5403  15.1521  16.2037  16.7142  16.9672
    18.2740  19.0262  19.1584  20.4583  21.8991  22.6559  23.3282  24.7299
    25.4757  25.7206  25.8795  27.6255  27.8915  28.7373  28.8927  28.8988

     occupation numbers 
     1.0000   1.0000   1.0000   1.0000   1.0000   1.0000   1.0000   1.0000
     0.0000   0.0000   0.0000   0.0000   0.0000   0.0000   0.0000   0.0000
     0.0000   0.0000   0.0000   0.0000   0.0000   0.0000   0.0000   0.0000
     0.0000   0.0000   0.0000   0.0000   0.0000   0.0000   0.0000   0.0000
     0.0000   0.0000   0.0000   0.0000   0.0000   0.0000   0.0000   0.0000

          k =-0.1000-0.1732-0.1212 (  4855 PWs)   bands (ev):

    -6.9152  -5.3776  -1.6484   2.0403   2.0821   3.3123   4.4145   4.5937
     6.9126   7.0648   8.4075   8.8255   9.0396   9.5540  11.2078  12.0425
    12.2738  13.1261  13.4773  14.4650  15.7041  16.3170  16.9513  17.6073
    18.0854  19.0023  20.4492  20.4501  22.0655  22.1216  23.7082  24.3387
    24.7715  25.7232  26.0431  27.1215  27.3030  28.3872  28.4752  29.2879

     occupation numbers 
     1.0000   1.0000   1.0000   1.0000   1.0000   1.0000   1.0001   1.0016
     0.0000   0.0000   0.0000   0.0000   0.0000   0.0000   0.0000   0.0000
     0.0000   0.0000   0.0000   0.0000   0.0000   0.0000   0.0000   0.0000
     0.0000   0.0000   0.0000   0.0000   0.0000   0.0000   0.0000   0.0000
     0.0000   0.0000   0.0000   0.0000   0.0000   0.0000   0.0000   0.0000

     the Fermi energy is     5.4062 ev

!    total energy              =     -31.97397086 Ry
     estimated scf accuracy    <          5.5E-12 Ry
     smearing contrib. (-TS)   =       0.00017429 Ry
     internal energy E=F+TS    =     -31.97414516 Ry

     The total energy is F=E-TS. E is the sum of the following terms:
     one-electron contribution =       7.07437733 Ry
     hartree contribution      =       2.39188361 Ry
     xc contribution           =      -9.33064491 Ry
     ewald contribution        =     -32.10976118 Ry

     convergence has been achieved in   9 iterations

     Forces acting on atoms (cartesian axes, Ry/au):

     atom    1 type  1   force =    -0.00000001    0.00000001   -0.00033398
     atom    2 type  1   force =     0.00000001   -0.00000001   -0.00033370
     atom    3 type  1   force =    -0.00000001    0.00000001    0.00033398
     atom    4 type  1   force =     0.00000001   -0.00000001    0.00033370
     The non-local contrib.  to forces
     atom    1 type  1   force =    -0.00000001    0.00000001    0.00258101
     atom    2 type  1   force =     0.00000001   -0.00000001    0.00258083
     atom    3 type  1   force =    -0.00000001    0.00000001   -0.00258101
     atom    4 type  1   force =     0.00000001   -0.00000001   -0.00258083
     The ionic contribution  to forces
     atom    1 type  1   force =    -0.00000005    0.00000003    0.05115381
     atom    2 type  1   force =     0.00000005   -0.00000003    0.05115381
     atom    3 type  1   force =    -0.00000005    0.00000003   -0.05115381
     atom    4 type  1   force =     0.00000005   -0.00000003   -0.05115381
     The local contribution  to forces
     atom    1 type  1   force =     0.00000004   -0.00000003   -0.05406907
     atom    2 type  1   force =    -0.00000004    0.00000003   -0.05406756
     atom    3 type  1   force =     0.00000004   -0.00000003    0.05406907
     atom    4 type  1   force =    -0.00000004    0.00000003    0.05406757
     The core correction contribution to forces
     atom    1 type  1   force =     0.00000000    0.00000000    0.00000000
     atom    2 type  1   force =     0.00000000    0.00000000    0.00000000
     atom    3 type  1   force =     0.00000000    0.00000000    0.00000000
     atom    4 type  1   force =     0.00000000    0.00000000    0.00000000
     The Hubbard contrib.    to forces
     atom    1 type  1   force =     0.00000000    0.00000000    0.00000000
     atom    2 type  1   force =     0.00000000    0.00000000    0.00000000
     atom    3 type  1   force =     0.00000000    0.00000000    0.00000000
     atom    4 type  1   force =     0.00000000    0.00000000    0.00000000
     The SCF correction term to forces
     atom    1 type  1   force =     0.00000000    0.00000000    0.00000027
     atom    2 type  1   force =    -0.00000000   -0.00000000   -0.00000078
     atom    3 type  1   force =     0.00000000    0.00000000   -0.00000026
     atom    4 type  1   force =    -0.00000000   -0.00000000    0.00000077

     Total force =     0.000668     Total SCF correction =     0.000001


     Computing stress (Cartesian axis) and pressure

          total   stress  (Ry/bohr**3)                   (kbar)     P=      -33.48
  -0.00022730   0.00000000   0.00000000          -33.44        0.00        0.00
   0.00000000  -0.00022730  -0.00000000            0.00      -33.44       -0.00
   0.00000000  -0.00000000  -0.00022820            0.00       -0.00      -33.57

     kinetic stress (kbar)   1940.85     -0.00      0.00
                               -0.00   1940.85      0.00
                                0.00      0.00   1940.99

     local   stress (kbar)   -353.30     -0.00     -0.00
                               -0.00   -353.30     -0.00
                               -0.00     -0.00   -463.51

     nonloc. stress (kbar)   1457.63      0.00      0.00
                                0.00   1457.63      0.00
                                0.00      0.00   1453.71

     hartree stress (kbar)    176.60      0.00      0.00
                                0.00    176.60      0.00
                                0.00      0.00    217.68

     exc-cor stress (kbar)   -676.39      0.00      0.00
                                0.00   -676.39      0.00
                                0.00      0.00   -676.39

     corecor stress (kbar)      0.00      0.00      0.00
                                0.00      0.00      0.00
                                0.00      0.00      0.00

     ewald   stress (kbar)  -2578.83      0.00     -0.00
                                0.00  -2578.83      0.00
                               -0.00      0.00  -2506.04

     hubbard stress (kbar)      0.00      0.00      0.00
                                0.00      0.00      0.00
                                0.00      0.00      0.00

     DFT-D   stress (kbar)      0.00      0.00      0.00
                                0.00      0.00      0.00
                                0.00      0.00      0.00

     XDM     stress (kbar)      0.00      0.00      0.00
                                0.00      0.00      0.00
                                0.00      0.00      0.00

     dft-nl  stress (kbar)      0.00      0.00      0.00
                                0.00      0.00      0.00
                                0.00      0.00      0.00

     TS-vdW  stress (kbar)      0.00      0.00      0.00
                                0.00      0.00      0.00
                                0.00      0.00      0.00

     MDB     stress (kbar)      0.00      0.00      0.00
                                0.00      0.00      0.00
                                0.00      0.00      0.00

     3D-RISM stress (kbar)      0.00      0.00      0.00
                                0.00      0.00      0.00
                                0.00      0.00      0.00


     Writing all to output data dir temp/hexge.save/ :
     XML data file, charge density, pseudopotentials, collected wavefunctions

     init_run     :      2.51s CPU      2.57s WALL (       1 calls)
     electrons    :     84.99s CPU     86.90s WALL (       1 calls)
     forces       :      0.96s CPU      0.96s WALL (       1 calls)
     stress       :      2.75s CPU      2.76s WALL (       1 calls)

     Called by init_run:
     wfcinit      :      2.49s CPU      2.54s WALL (       1 calls)
     wfcinit:atom :      0.01s CPU      0.01s WALL (     250 calls)
     wfcinit:wfcr :      2.45s CPU      2.50s WALL (     250 calls)
     potinit      :      0.00s CPU      0.01s WALL (       1 calls)
     hinit0       :      0.00s CPU      0.01s WALL (       1 calls)

     Called by electrons:
     c_bands      :     76.17s CPU     77.85s WALL (      10 calls)
     sum_band     :      8.78s CPU      8.97s WALL (      10 calls)
     v_of_rho     :      0.01s CPU      0.01s WALL (      10 calls)
     v_h          :      0.00s CPU      0.00s WALL (      10 calls)
     v_xc         :      0.00s CPU      0.01s WALL (      10 calls)
     mix_rho      :      0.01s CPU      0.01s WALL (      10 calls)

     Called by c_bands:
     init_us_2    :      0.31s CPU      0.32s WALL (    5750 calls)
     cegterg      :     73.29s CPU     74.34s WALL (    2500 calls)

     Called by sum_band:
     sum_band:wei :      0.08s CPU      0.08s WALL (      10 calls)
     sum_band:loo :      8.68s CPU      8.86s WALL (      10 calls)
     sum_band:buf :      0.09s CPU      0.09s WALL (    2500 calls)
     sum_band:ini :      0.13s CPU      0.14s WALL (    2500 calls)

     Called by *egterg:
     cdiaghg      :     12.47s CPU     12.55s WALL (    8290 calls)
     cegterg:over :      7.00s CPU      7.05s WALL (    6040 calls)
     cegterg:upda :      1.57s CPU      1.59s WALL (    6040 calls)
     cegterg:last :      2.48s CPU      2.50s WALL (    4016 calls)
     h_psi        :     47.79s CPU     48.72s WALL (    8790 calls)
     g_psi        :      0.10s CPU      0.10s WALL (    6040 calls)

     Called by h_psi:
     h_psi:calbec :      4.53s CPU      4.60s WALL (    8790 calls)
     vloc_psi     :     41.04s CPU     41.88s WALL (    8790 calls)
     add_vuspsi   :      2.15s CPU      2.17s WALL (    8790 calls)

     General routines
     calbec       :      5.71s CPU      5.79s WALL (   10040 calls)
     fft          :      0.01s CPU      0.01s WALL (      35 calls)
     ffts         :      0.00s CPU      0.00s WALL (      10 calls)
     fftw         :     47.42s CPU     48.40s WALL (  566016 calls)

     Parallel routines

     PWSCF        :   1m33.64s CPU   1m37.54s WALL


   This run was terminated on:  11:35:24  11Feb2026            

=------------------------------------------------------------------------------=
   JOB DONE.
=------------------------------------------------------------------------------=
