
     Program BANDS v.7.3.1 starts on  6Feb2026 at 15:11: 1 

     This program is part of the open-source Quantum ESPRESSO suite
     for quantum simulation of materials; please cite
         "P. Giannozzi et al., J. Phys.:Condens. Matter 21 395502 (2009);
         "P. Giannozzi et al., J. Phys.:Condens. Matter 29 465901 (2017);
         "P. Giannozzi et al., J. Chem. Phys. 152 154105 (2020);
          URL http://www.quantum-espresso.org", 
     in publications or presentations arising from this work. More details at
     http://www.quantum-espresso.org/quote

     Parallel version (MPI), running on    48 processors

     MPI processes distributed on     1 nodes
     R & G space division:  proc/nbgrp/npool/nimage =      48
     249855 MiB available memory on the printing compute node when the environment starts


     Reading xml data from directory:

     temp/hexsi.save/

     IMPORTANT: XC functional enforced from input :
     Exchange-correlation= PZ
                           (   1   1   0   0   0   0   0)
     Any further DFT definition will be discarded
     Please, verify this is what you really want


     Parallelization info
     --------------------
     sticks:   dense  smooth     PW     G-vecs:    dense   smooth      PW
     Min          17      17      6                  701      701     135
     Max          18      18      8                  716      716     140
     Sum         859     859    295                34133    34133    6569

     Using Slab Decomposition

     Reading collected, re-writing distributed wavefunctions
     high-symmetry point:  0.0000 0.0000 0.0000   x coordinate   0.0000
     high-symmetry point:  0.0000 0.0000 0.2420   x coordinate   0.2420
     high-symmetry point:  0.0000 0.0000-0.2420   x coordinate   0.7260
     high-symmetry point:  0.0000 0.0000-0.1210   x coordinate   0.8470
     high-symmetry point:  0.0000 0.1155 0.0000   x coordinate   1.0143
     high-symmetry point:  0.0000 0.1155 0.2420   x coordinate   1.2563
     high-symmetry point:  0.0000 0.1155-0.2420   x coordinate   1.7403
     high-symmetry point:  0.0000 0.1155-0.1210   x coordinate   1.8613
     high-symmetry point:  0.0000 0.2309 0.0000   x coordinate   2.0286
     high-symmetry point:  0.0000 0.2309 0.2420   x coordinate   2.2706
     high-symmetry point:  0.0000 0.2309-0.2420   x coordinate   2.7546
     high-symmetry point:  0.0000 0.2309-0.1210   x coordinate   2.8756
     high-symmetry point:  0.0000 0.3464 0.0000   x coordinate   3.0428
     high-symmetry point:  0.0000 0.3464 0.2420   x coordinate   3.2848
     high-symmetry point:  0.0000 0.3464-0.2420   x coordinate   3.7688
     high-symmetry point:  0.0000 0.3464-0.1210   x coordinate   3.8898
     high-symmetry point:  0.0000 0.4619 0.0000   x coordinate   4.0571
     high-symmetry point:  0.0000 0.4619 0.2420   x coordinate   4.2991
     high-symmetry point:  0.0000 0.4619-0.2420   x coordinate   4.7831
     high-symmetry point:  0.0000 0.4619-0.1210   x coordinate   4.9041
     high-symmetry point:  0.0000-0.5774 0.0000   x coordinate   4.9041
     high-symmetry point:  0.0000-0.5774 0.2420   x coordinate   5.1461
     high-symmetry point:  0.0000-0.5774-0.2420   x coordinate   5.6301
     high-symmetry point:  0.0000-0.5774-0.1210   x coordinate   5.7511
     high-symmetry point:  0.0000-0.4619 0.0000   x coordinate   5.9184
     high-symmetry point:  0.0000-0.4619 0.2420   x coordinate   6.1604
     high-symmetry point:  0.0000-0.4619-0.2420   x coordinate   6.6444
     high-symmetry point:  0.0000-0.4619-0.1210   x coordinate   6.7654
     high-symmetry point:  0.0000-0.3464 0.0000   x coordinate   6.9327
     high-symmetry point:  0.0000-0.3464 0.2420   x coordinate   7.1747
     high-symmetry point:  0.0000-0.3464-0.2420   x coordinate   7.6587
     high-symmetry point:  0.0000-0.3464-0.1210   x coordinate   7.7797
     high-symmetry point:  0.0000-0.2309 0.0000   x coordinate   7.9469
     high-symmetry point:  0.0000-0.2309 0.2420   x coordinate   8.1889
     high-symmetry point:  0.0000-0.2309-0.2420   x coordinate   8.6730
     high-symmetry point:  0.0000-0.2309-0.1210   x coordinate   8.7940
     high-symmetry point:  0.0000-0.1155 0.0000   x coordinate   8.9612
     high-symmetry point:  0.0000-0.1155 0.2420   x coordinate   9.2032
     high-symmetry point:  0.0000-0.1155-0.2420   x coordinate   9.6872
     high-symmetry point:  0.0000-0.1155-0.1210   x coordinate   9.8082
     high-symmetry point:  0.1000 0.0577 0.0000   x coordinate  10.0420
     high-symmetry point:  0.1000 0.0577 0.2420   x coordinate  10.2840
     high-symmetry point:  0.1000 0.0577-0.2420   x coordinate  10.7680
     high-symmetry point:  0.1000 0.0577-0.1210   x coordinate  10.8890
     high-symmetry point:  0.1000 0.1732 0.0000   x coordinate  11.0563
     high-symmetry point:  0.1000 0.1732 0.2420   x coordinate  11.2983
     high-symmetry point:  0.1000 0.1732-0.2420   x coordinate  11.7823
     high-symmetry point:  0.1000 0.1732-0.1210   x coordinate  11.9033
     high-symmetry point:  0.1000 0.2887 0.0000   x coordinate  12.0705
     high-symmetry point:  0.1000 0.2887 0.2420   x coordinate  12.3125
     high-symmetry point:  0.1000 0.2887-0.2420   x coordinate  12.7966
     high-symmetry point:  0.1000 0.2887-0.1210   x coordinate  12.9176
     high-symmetry point:  0.1000 0.4041 0.0000   x coordinate  13.0848
     high-symmetry point:  0.1000 0.4041 0.2420   x coordinate  13.3268
     high-symmetry point:  0.1000 0.4041-0.2420   x coordinate  13.8108
     high-symmetry point:  0.1000 0.4041-0.1210   x coordinate  13.9318
     high-symmetry point:  0.1000 0.5196 0.0000   x coordinate  14.0991
     high-symmetry point:  0.1000 0.5196 0.2420   x coordinate  14.3411
     high-symmetry point:  0.1000 0.5196-0.2420   x coordinate  14.8251
     high-symmetry point:  0.1000 0.5196-0.1210   x coordinate  14.9461
     high-symmetry point:  0.1000-0.5196 0.0000   x coordinate  14.9461
     high-symmetry point:  0.1000-0.5196 0.2420   x coordinate  15.1881
     high-symmetry point:  0.1000-0.5196-0.2420   x coordinate  15.6721
     high-symmetry point:  0.1000-0.5196-0.1210   x coordinate  15.7931
     high-symmetry point:  0.1000-0.4041 0.0000   x coordinate  15.9604
     high-symmetry point:  0.1000-0.4041 0.2420   x coordinate  16.2024
     high-symmetry point:  0.1000-0.4041-0.2420   x coordinate  16.6864
     high-symmetry point:  0.1000-0.4041-0.1210   x coordinate  16.8074
     high-symmetry point:  0.1000-0.2887 0.0000   x coordinate  16.9747
     high-symmetry point:  0.1000-0.2887 0.2420   x coordinate  17.2167
     high-symmetry point:  0.1000-0.2887-0.2420   x coordinate  17.7007
     high-symmetry point:  0.1000-0.2887-0.1210   x coordinate  17.8217
     high-symmetry point:  0.1000-0.1732 0.0000   x coordinate  17.9889
     high-symmetry point:  0.1000-0.1732 0.2420   x coordinate  18.2309
     high-symmetry point:  0.1000-0.1732-0.2420   x coordinate  18.7150
     high-symmetry point:  0.1000-0.1732-0.1210   x coordinate  18.8360
     high-symmetry point:  0.1000-0.0577 0.0000   x coordinate  19.0032
     high-symmetry point:  0.1000-0.0577 0.2420   x coordinate  19.2452
     high-symmetry point:  0.1000-0.0577-0.2420   x coordinate  19.7292
     high-symmetry point:  0.1000-0.0577-0.1210   x coordinate  19.8502
     high-symmetry point:  0.2000 0.1155 0.0000   x coordinate  20.0840
     high-symmetry point:  0.2000 0.1155 0.2420   x coordinate  20.3260
     high-symmetry point:  0.2000 0.1155-0.2420   x coordinate  20.8100
     high-symmetry point:  0.2000 0.1155-0.1210   x coordinate  20.9310
     high-symmetry point:  0.2000 0.2309 0.0000   x coordinate  21.0983
     high-symmetry point:  0.2000 0.2309 0.2420   x coordinate  21.3403
     high-symmetry point:  0.2000 0.2309-0.2420   x coordinate  21.8243
     high-symmetry point:  0.2000 0.2309-0.1210   x coordinate  21.9453
     high-symmetry point:  0.2000 0.3464 0.0000   x coordinate  22.1125
     high-symmetry point:  0.2000 0.3464 0.2420   x coordinate  22.3545
     high-symmetry point:  0.2000 0.3464-0.2420   x coordinate  22.8385
     high-symmetry point:  0.2000 0.3464-0.1210   x coordinate  22.9596
     high-symmetry point:  0.2000 0.4619 0.0000   x coordinate  23.1268
     high-symmetry point:  0.2000 0.4619 0.2420   x coordinate  23.3688
     high-symmetry point:  0.2000 0.4619-0.2420   x coordinate  23.8528
     high-symmetry point:  0.2000 0.4619-0.1210   x coordinate  23.9738
     high-symmetry point:  0.2000 0.5774 0.0000   x coordinate  24.1411
     high-symmetry point:  0.2000 0.5774 0.2420   x coordinate  24.3831
     high-symmetry point:  0.2000 0.5774-0.2420   x coordinate  24.8671
     high-symmetry point:  0.2000 0.5774-0.1210   x coordinate  24.9881
     Message from routine punch_plottable_bands:
     too many lines, exiting
     Bands written to file hexsi.bands

 **************************************************************************

                    xk=(   0.00000,   0.00000,   0.00000  )

     point group C_1 (1)    
     there are  1 classes
     the character table:

       E    
A      1.00

     the symmetry operations in each class and the name of the first element:

     E        1
                                                                 

     Band symmetry, C_1 (1)     point group:

     e(  1 -  1) =     -5.97542  eV     1   --> A              
     e(  2 -  2) =     -3.68899  eV     1   --> A              
     e(  3 -  3) =     -1.01681  eV     1   --> A              
     e(  4 -  5) =      4.70426  eV     2   -->   2 A              
     e(  6 -  6) =      5.86477  eV     1   --> A              
     e(  7 -  8) =      6.21282  eV     2   -->   2 A              
     e(  9 -  9) =      7.13725  eV     1   --> A              
     e( 10 - 11) =      8.20802  eV     2   -->   2 A              
     e( 12 - 12) =      8.50503  eV     1   --> A              
     e( 13 - 13) =      9.51577  eV     1   --> A              
     e( 14 - 15) =     10.37841  eV     2   -->   2 A              
     e( 16 - 17) =     12.16476  eV     2   -->   2 A              
     e( 18 - 18) =     13.14110  eV     1   --> A              
     e( 19 - 20) =     14.69097  eV     2   -->   2 A              

 **************************************************************************

 **************************************************************************

                    xk=(   0.00000,   0.00000,   0.12100  )

     Band symmetry, C_1 (1)     point group:

     e(  1 -  1) =     -5.84641  eV     1   --> A              
     e(  2 -  2) =     -4.12813  eV     1   --> A              
     e(  3 -  3) =     -0.33517  eV     1   --> A              
     e(  4 -  4) =      4.71071  eV     1   --> A              
     e(  5 -  6) =      4.80385  eV     2   -->   2 A              
     e(  7 -  8) =      5.98323  eV     2   -->   2 A              
     e(  9 -  9) =      7.26816  eV     1   --> A              
     e( 10 - 11) =      8.41714  eV     2   -->   2 A              
     e( 12 - 12) =      8.80176  eV     1   --> A              
     e( 13 - 13) =     10.04624  eV     1   --> A              
     e( 14 - 15) =     10.09075  eV     2   -->   2 A              
     e( 16 - 17) =     12.54634  eV     2   -->   2 A              
     e( 18 - 18) =     13.35399  eV     1   --> A              
     e( 19 - 19) =     15.07732  eV     1   --> A              
     e( 20 - 20) =     15.07865  eV     1   --> A              

 **************************************************************************

 **************************************************************************

                    xk=(   0.00000,   0.00000,   0.24201  )

     Band symmetry, C_1 (1)     point group:

     e(  1 -  1) =     -5.46571  eV     1   --> A              
     e(  2 -  2) =     -4.86034  eV     1   --> A              
     e(  3 -  3) =      1.11414  eV     1   --> A              
     e(  4 -  4) =      2.87115  eV     1   --> A              
     e(  5 -  6) =      5.09102  eV     2   -->   2 A              
     e(  7 -  8) =      5.52202  eV     2   -->   2 A              
     e(  9 -  9) =      7.64974  eV     1   --> A              
     e( 10 - 10) =      8.23186  eV     1   --> A              
     e( 11 - 12) =      8.89351  eV     2   -->   2 A              
     e( 13 - 14) =      9.49372  eV     2   -->   2 A              
     e( 15 - 15) =     11.85546  eV     1   --> A              
     e( 16 - 17) =     13.58054  eV     2   -->   2 A              
     e( 18 - 18) =     13.70996  eV     1   --> A              
     e( 19 - 19) =     13.85303  eV     1   --> A              
     e( 20 - 20) =     14.61959  eV     1   --> A              

 **************************************************************************

 **************************************************************************

                    xk=(   0.00000,   0.00000,  -0.24201  )

     Band symmetry, C_1 (1)     point group:

     e(  1 -  1) =     -5.46571  eV     1   --> A              
     e(  2 -  2) =     -4.86034  eV     1   --> A              
     e(  3 -  3) =      1.11414  eV     1   --> A              
     e(  4 -  4) =      2.87115  eV     1   --> A              
     e(  5 -  6) =      5.09102  eV     2   -->   2 A              
     e(  7 -  8) =      5.52202  eV     2   -->   2 A              
     e(  9 -  9) =      7.64974  eV     1   --> A              
     e( 10 - 10) =      8.23186  eV     1   --> A              
     e( 11 - 12) =      8.89351  eV     2   -->   2 A              
     e( 13 - 14) =      9.49372  eV     2   -->   2 A              
     e( 15 - 15) =     11.85546  eV     1   --> A              
     e( 16 - 17) =     13.58054  eV     2   -->   2 A              
     e( 18 - 18) =     13.70996  eV     1   --> A              
     e( 19 - 19) =     13.85303  eV     1   --> A              
     e( 20 - 20) =     14.61960  eV     1   --> A              

 **************************************************************************

 **************************************************************************

                    xk=(   0.00000,   0.00000,  -0.12100  )

     Band symmetry, C_1 (1)     point group:

     e(  1 -  1) =     -5.84641  eV     1   --> A              
     e(  2 -  2) =     -4.12813  eV     1   --> A              
     e(  3 -  3) =     -0.33517  eV     1   --> A              
     e(  4 -  4) =      4.71071  eV     1   --> A              
     e(  5 -  6) =      4.80385  eV     2   -->   2 A              
     e(  7 -  8) =      5.98323  eV     2   -->   2 A              
     e(  9 -  9) =      7.26816  eV     1   --> A              
     e( 10 - 11) =      8.41714  eV     2   -->   2 A              
     e( 12 - 12) =      8.80176  eV     1   --> A              
     e( 13 - 13) =     10.04624  eV     1   --> A              
     e( 14 - 15) =     10.09075  eV     2   -->   2 A              
     e( 16 - 17) =     12.54634  eV     2   -->   2 A              
     e( 18 - 18) =     13.35399  eV     1   --> A              
     e( 19 - 19) =     15.07731  eV     1   --> A              
     e( 20 - 20) =     15.07746  eV     1   --> A              

 **************************************************************************

 **************************************************************************

                    xk=(   0.00000,   0.11547,   0.00000  )

     Band symmetry, C_1 (1)     point group:

     e(  1 -  1) =     -5.85912  eV     1   --> A              
     e(  2 -  2) =     -3.57052  eV     1   --> A              
     e(  3 -  3) =     -0.95481  eV     1   --> A              
     e(  4 -  4) =      3.77388  eV     1   --> A              
     e(  5 -  5) =      4.46874  eV     1   --> A              
     e(  6 -  6) =      5.35375  eV     1   --> A              
     e(  7 -  7) =      5.69238  eV     1   --> A              
     e(  8 -  8) =      6.00286  eV     1   --> A              
     e(  9 -  9) =      7.63553  eV     1   --> A              
     e( 10 - 10) =      8.49358  eV     1   --> A              
     e( 11 - 11) =      8.55845  eV     1   --> A              
     e( 12 - 12) =      8.61655  eV     1   --> A              
     e( 13 - 13) =      9.85685  eV     1   --> A              
     e( 14 - 14) =     10.71227  eV     1   --> A              
     e( 15 - 15) =     10.81390  eV     1   --> A              
     e( 16 - 16) =     11.46573  eV     1   --> A              
     e( 17 - 17) =     11.97696  eV     1   --> A              
     e( 18 - 18) =     13.78847  eV     1   --> A              
     e( 19 - 19) =     13.92183  eV     1   --> A              
     e( 20 - 20) =     15.16468  eV     1   --> A              

 **************************************************************************

 **************************************************************************

                    xk=(   0.00000,   0.11547,   0.12100  )

     Band symmetry, C_1 (1)     point group:

     e(  1 -  1) =     -5.73029  eV     1   --> A              
     e(  2 -  2) =     -4.01220  eV     1   --> A              
     e(  3 -  3) =     -0.27798  eV     1   --> A              
     e(  4 -  4) =      3.89025  eV     1   --> A              
     e(  5 -  5) =      4.47203  eV     1   --> A              
     e(  6 -  6) =      4.57028  eV     1   --> A              
     e(  7 -  7) =      5.40720  eV     1   --> A              
     e(  8 -  8) =      5.77238  eV     1   --> A              
     e(  9 -  9) =      7.71910  eV     1   --> A              
     e( 10 - 10) =      8.50929  eV     1   --> A              
     e( 11 - 11) =      8.78470  eV     1   --> A              
     e( 12 - 12) =      9.11653  eV     1   --> A              
     e( 13 - 13) =      9.82968  eV     1   --> A              
     e( 14 - 14) =     10.52272  eV     1   --> A              
     e( 15 - 15) =     10.60888  eV     1   --> A              
     e( 16 - 16) =     12.04759  eV     1   --> A              
     e( 17 - 17) =     12.35162  eV     1   --> A              
     e( 18 - 18) =     14.02315  eV     1   --> A              
     e( 19 - 19) =     14.07918  eV     1   --> A              
     e( 20 - 20) =     15.44250  eV     1   --> A              

 **************************************************************************

 **************************************************************************

                    xk=(   0.00000,   0.11547,   0.24201  )

     Band symmetry, C_1 (1)     point group:

     e(  1 -  1) =     -5.35008  eV     1   --> A              
     e(  2 -  2) =     -4.74518  eV     1   --> A              
     e(  3 -  3) =      1.14449  eV     1   --> A              
     e(  4 -  4) =      2.82826  eV     1   --> A              
     e(  5 -  5) =      4.23704  eV     1   --> A              
     e(  6 -  6) =      4.77749  eV     1   --> A              
     e(  7 -  7) =      4.86329  eV     1   --> A              
     e(  8 -  8) =      5.30333  eV     1   --> A              
     e(  9 -  9) =      8.11760  eV     1   --> A              
     e( 10 - 10) =      8.66990  eV     1   --> A              
     e( 11 - 11) =      8.98202  eV     1   --> A              
     e( 12 - 12) =      9.29487  eV     1   --> A              
     e( 13 - 13) =      9.55078  eV     1   --> A              
     e( 14 - 14) =      9.91748  eV     1   --> A              
     e( 15 - 15) =     11.49813  eV     1   --> A              
     e( 16 - 16) =     12.92708  eV     1   --> A              
     e( 17 - 17) =     13.37490  eV     1   --> A              
     e( 18 - 18) =     13.54871  eV     1   --> A              
     e( 19 - 19) =     14.62223  eV     1   --> A              
     e( 20 - 20) =     14.78001  eV     1   --> A              

 **************************************************************************

 **************************************************************************

                    xk=(   0.00000,   0.11547,  -0.24201  )

     Band symmetry, C_1 (1)     point group:

     e(  1 -  1) =     -5.35008  eV     1   --> A              
     e(  2 -  2) =     -4.74518  eV     1   --> A              
     e(  3 -  3) =      1.14449  eV     1   --> A              
     e(  4 -  4) =      2.82826  eV     1   --> A              
     e(  5 -  5) =      4.23704  eV     1   --> A              
     e(  6 -  6) =      4.77749  eV     1   --> A              
     e(  7 -  7) =      4.86329  eV     1   --> A              
     e(  8 -  8) =      5.30333  eV     1   --> A              
     e(  9 -  9) =      8.11760  eV     1   --> A              
     e( 10 - 10) =      8.66990  eV     1   --> A              
     e( 11 - 11) =      8.98202  eV     1   --> A              
     e( 12 - 12) =      9.29487  eV     1   --> A              
     e( 13 - 13) =      9.55078  eV     1   --> A              
     e( 14 - 14) =      9.91748  eV     1   --> A              
     e( 15 - 15) =     11.49813  eV     1   --> A              
     e( 16 - 16) =     12.92708  eV     1   --> A              
     e( 17 - 17) =     13.37490  eV     1   --> A              
     e( 18 - 18) =     13.54871  eV     1   --> A              
     e( 19 - 19) =     14.62217  eV     1   --> A              
     e( 20 - 20) =     14.78001  eV     1   --> A              

 **************************************************************************

 **************************************************************************

                    xk=(   0.00000,   0.11547,  -0.12100  )

     Band symmetry, C_1 (1)     point group:

     e(  1 -  1) =     -5.73029  eV     1   --> A              
     e(  2 -  2) =     -4.01220  eV     1   --> A              
     e(  3 -  3) =     -0.27798  eV     1   --> A              
     e(  4 -  4) =      3.89025  eV     1   --> A              
     e(  5 -  5) =      4.47203  eV     1   --> A              
     e(  6 -  6) =      4.57028  eV     1   --> A              
     e(  7 -  7) =      5.40720  eV     1   --> A              
     e(  8 -  8) =      5.77238  eV     1   --> A              
     e(  9 -  9) =      7.71910  eV     1   --> A              
     e( 10 - 10) =      8.50929  eV     1   --> A              
     e( 11 - 11) =      8.78470  eV     1   --> A              
     e( 12 - 12) =      9.11653  eV     1   --> A              
     e( 13 - 13) =      9.82968  eV     1   --> A              
     e( 14 - 14) =     10.52272  eV     1   --> A              
     e( 15 - 15) =     10.60888  eV     1   --> A              
     e( 16 - 16) =     12.04759  eV     1   --> A              
     e( 17 - 17) =     12.35162  eV     1   --> A              
     e( 18 - 18) =     14.02314  eV     1   --> A              
     e( 19 - 19) =     14.07919  eV     1   --> A              
     e( 20 - 20) =     15.44239  eV     1   --> A              

 **************************************************************************

 **************************************************************************

                    xk=(   0.00000,   0.23094,   0.00000  )

     Band symmetry, C_1 (1)     point group:

     e(  1 -  1) =     -5.51470  eV     1   --> A              
     e(  2 -  2) =     -3.21879  eV     1   --> A              
     e(  3 -  3) =     -0.83157  eV     1   --> A              
     e(  4 -  4) =      2.36030  eV     1   --> A              
     e(  5 -  5) =      3.82103  eV     1   --> A              
     e(  6 -  6) =      3.99483  eV     1   --> A              
     e(  7 -  7) =      5.17810  eV     1   --> A              
     e(  8 -  8) =      5.56665  eV     1   --> A              
     e(  9 -  9) =      7.37457  eV     1   --> A              
     e( 10 - 10) =      8.94010  eV     1   --> A              
     e( 11 - 11) =      9.19153  eV     1   --> A              
     e( 12 - 12) =      9.42776  eV     1   --> A              
     e( 13 - 13) =      9.77843  eV     1   --> A              
     e( 14 - 14) =     10.74444  eV     1   --> A              
     e( 15 - 15) =     11.91876  eV     1   --> A              
     e( 16 - 16) =     11.95750  eV     1   --> A              
     e( 17 - 17) =     12.36269  eV     1   --> A              
     e( 18 - 18) =     13.11627  eV     1   --> A              
     e( 19 - 19) =     15.23301  eV     1   --> A              
     e( 20 - 20) =     15.30817  eV     1   --> A              

 **************************************************************************

 **************************************************************************

                    xk=(   0.00000,   0.23094,   0.12100  )

     Band symmetry, C_1 (1)     point group:

     e(  1 -  1) =     -5.38651  eV     1   --> A              
     e(  2 -  2) =     -3.66986  eV     1   --> A              
     e(  3 -  3) =     -0.18759  eV     1   --> A              
     e(  4 -  4) =      2.52149  eV     1   --> A              
     e(  5 -  5) =      3.31590  eV     1   --> A              
     e(  6 -  6) =      4.09908  eV     1   --> A              
     e(  7 -  7) =      4.99905  eV     1   --> A              
     e(  8 -  8) =      5.33320  eV     1   --> A              
     e(  9 -  9) =      7.25841  eV     1   --> A              
     e( 10 - 10) =      8.80407  eV     1   --> A              
     e( 11 - 11) =      9.04672  eV     1   --> A              
     e( 12 - 12) =      9.50458  eV     1   --> A              
     e( 13 - 13) =     10.33429  eV     1   --> A              
     e( 14 - 14) =     11.45413  eV     1   --> A              
     e( 15 - 15) =     11.59215  eV     1   --> A              
     e( 16 - 16) =     12.05937  eV     1   --> A              
     e( 17 - 17) =     12.27205  eV     1   --> A              
     e( 18 - 18) =     13.29726  eV     1   --> A              
     e( 19 - 19) =     14.82307  eV     1   --> A              
     e( 20 - 20) =     15.55526  eV     1   --> A              

 **************************************************************************

 **************************************************************************

                    xk=(   0.00000,   0.23094,   0.24201  )

     Band symmetry, C_1 (1)     point group:

     e(  1 -  1) =     -5.00808  eV     1   --> A              
     e(  2 -  2) =     -4.40511  eV     1   --> A              
     e(  3 -  3) =      1.06593  eV     1   --> A              
     e(  4 -  4) =      2.31267  eV     1   --> A              
     e(  5 -  5) =      3.04824  eV     1   --> A              
     e(  6 -  6) =      3.99159  eV     1   --> A              
     e(  7 -  7) =      4.40018  eV     1   --> A              
     e(  8 -  8) =      4.85269  eV     1   --> A              
     e(  9 -  9) =      7.63716  eV     1   --> A              
     e( 10 - 10) =      8.31116  eV     1   --> A              
     e( 11 - 11) =      9.52484  eV     1   --> A              
     e( 12 - 12) =     10.18743  eV     1   --> A              
     e( 13 - 13) =     10.34721  eV     1   --> A              
     e( 14 - 14) =     10.93476  eV     1   --> A              
     e( 15 - 15) =     11.58141  eV     1   --> A              
     e( 16 - 16) =     11.93177  eV     1   --> A              
     e( 17 - 17) =     13.13821  eV     1   --> A              
     e( 18 - 18) =     13.79969  eV     1   --> A              
     e( 19 - 19) =     14.50562  eV     1   --> A              
     e( 20 - 20) =     15.33898  eV     1   --> A              

 **************************************************************************

 **************************************************************************

                    xk=(   0.00000,   0.23094,  -0.24201  )

     Band symmetry, C_1 (1)     point group:

     e(  1 -  1) =     -5.00808  eV     1   --> A              
     e(  2 -  2) =     -4.40511  eV     1   --> A              
     e(  3 -  3) =      1.06593  eV     1   --> A              
     e(  4 -  4) =      2.31267  eV     1   --> A              
     e(  5 -  5) =      3.04824  eV     1   --> A              
     e(  6 -  6) =      3.99159  eV     1   --> A              
     e(  7 -  7) =      4.40018  eV     1   --> A              
     e(  8 -  8) =      4.85269  eV     1   --> A              
     e(  9 -  9) =      7.63716  eV     1   --> A              
     e( 10 - 10) =      8.31116  eV     1   --> A              
     e( 11 - 11) =      9.52484  eV     1   --> A              
     e( 12 - 12) =     10.18743  eV     1   --> A              
     e( 13 - 13) =     10.34721  eV     1   --> A              
     e( 14 - 14) =     10.93476  eV     1   --> A              
     e( 15 - 15) =     11.58141  eV     1   --> A              
     e( 16 - 16) =     11.93177  eV     1   --> A              
     e( 17 - 17) =     13.13821  eV     1   --> A              
     e( 18 - 18) =     13.79970  eV     1   --> A              
     e( 19 - 19) =     14.50562  eV     1   --> A              
     e( 20 - 20) =     15.33897  eV     1   --> A              

 **************************************************************************

 **************************************************************************

                    xk=(   0.00000,   0.23094,  -0.12100  )

     Band symmetry, C_1 (1)     point group:

     e(  1 -  1) =     -5.38651  eV     1   --> A              
     e(  2 -  2) =     -3.66986  eV     1   --> A              
     e(  3 -  3) =     -0.18759  eV     1   --> A              
     e(  4 -  4) =      2.52149  eV     1   --> A              
     e(  5 -  5) =      3.31590  eV     1   --> A              
     e(  6 -  6) =      4.09908  eV     1   --> A              
     e(  7 -  7) =      4.99905  eV     1   --> A              
     e(  8 -  8) =      5.33320  eV     1   --> A              
     e(  9 -  9) =      7.25841  eV     1   --> A              
     e( 10 - 10) =      8.80407  eV     1   --> A              
     e( 11 - 11) =      9.04672  eV     1   --> A              
     e( 12 - 12) =      9.50458  eV     1   --> A              
     e( 13 - 13) =     10.33429  eV     1   --> A              
     e( 14 - 14) =     11.45413  eV     1   --> A              
     e( 15 - 15) =     11.59215  eV     1   --> A              
     e( 16 - 16) =     12.05937  eV     1   --> A              
     e( 17 - 17) =     12.27205  eV     1   --> A              
     e( 18 - 18) =     13.29726  eV     1   --> A              
     e( 19 - 19) =     14.82307  eV     1   --> A              
     e( 20 - 20) =     15.55526  eV     1   --> A              

 **************************************************************************

 **************************************************************************

                    xk=(   0.00000,   0.34641,   0.00000  )

     Band symmetry, C_1 (1)     point group:

     e(  1 -  1) =     -4.96042  eV     1   --> A              
     e(  2 -  2) =     -2.64915  eV     1   --> A              
     e(  3 -  3) =     -0.95759  eV     1   --> A              
     e(  4 -  4) =      1.40745  eV     1   --> A              
     e(  5 -  5) =      2.28477  eV     1   --> A              
     e(  6 -  6) =      3.55696  eV     1   --> A              
     e(  7 -  7) =      4.41824  eV     1   --> A              
     e(  8 -  8) =      5.15385  eV     1   --> A              
     e(  9 -  9) =      6.99215  eV     1   --> A              
     e( 10 - 10) =      8.92781  eV     1   --> A              
     e( 11 - 11) =      9.43197  eV     1   --> A              
     e( 12 - 12) =      9.47233  eV     1   --> A              
     e( 13 - 13) =      9.51800  eV     1   --> A              
     e( 14 - 14) =     12.01382  eV     1   --> A              
     e( 15 - 15) =     12.82607  eV     1   --> A              
     e( 16 - 16) =     12.87862  eV     1   --> A              
     e( 17 - 17) =     13.40759  eV     1   --> A              
     e( 18 - 18) =     13.86413  eV     1   --> A              
     e( 19 - 19) =     14.41023  eV     1   --> A              
     e( 20 - 20) =     16.27450  eV     1   --> A              

 **************************************************************************

 **************************************************************************

                    xk=(   0.00000,   0.34641,   0.12100  )

     Band symmetry, C_1 (1)     point group:

     e(  1 -  1) =     -4.83380  eV     1   --> A              
     e(  2 -  2) =     -3.12589  eV     1   --> A              
     e(  3 -  3) =     -0.45858  eV     1   --> A              
     e(  4 -  4) =      1.71793  eV     1   --> A              
     e(  5 -  5) =      1.87887  eV     1   --> A              
     e(  6 -  6) =      3.66288  eV     1   --> A              
     e(  7 -  7) =      4.60736  eV     1   --> A              
     e(  8 -  8) =      4.91743  eV     1   --> A              
     e(  9 -  9) =      6.91111  eV     1   --> A              
     e( 10 - 10) =      8.18979  eV     1   --> A              
     e( 11 - 11) =      8.67835  eV     1   --> A              
     e( 12 - 12) =      9.86367  eV     1   --> A              
     e( 13 - 13) =     11.06683  eV     1   --> A              
     e( 14 - 14) =     11.55445  eV     1   --> A              
     e( 15 - 15) =     12.85384  eV     1   --> A              
     e( 16 - 16) =     12.87351  eV     1   --> A              
     e( 17 - 17) =     13.16859  eV     1   --> A              
     e( 18 - 18) =     14.10164  eV     1   --> A              
     e( 19 - 19) =     14.50116  eV     1   --> A              
     e( 20 - 20) =     15.96533  eV     1   --> A              

 **************************************************************************

 **************************************************************************

                    xk=(   0.00000,   0.34641,   0.24201  )

     Band symmetry, C_1 (1)     point group:

     e(  1 -  1) =     -4.45996  eV     1   --> A              
     e(  2 -  2) =     -3.86326  eV     1   --> A              
     e(  3 -  3) =      0.32496  eV     1   --> A              
     e(  4 -  4) =      1.09528  eV     1   --> A              
     e(  5 -  5) =      2.70171  eV     1   --> A              
     e(  6 -  6) =      3.96896  eV     1   --> A              
     e(  7 -  7) =      3.98045  eV     1   --> A              
     e(  8 -  8) =      4.42919  eV     1   --> A              
     e(  9 -  9) =      7.08927  eV     1   --> A              
     e( 10 - 10) =      7.80924  eV     1   --> A              
     e( 11 - 11) =      8.63113  eV     1   --> A              
     e( 12 - 12) =      9.87861  eV     1   --> A              
     e( 13 - 13) =     10.88694  eV     1   --> A              
     e( 14 - 14) =     12.04341  eV     1   --> A              
     e( 15 - 15) =     12.69966  eV     1   --> A              
     e( 16 - 16) =     13.10211  eV     1   --> A              
     e( 17 - 17) =     13.58297  eV     1   --> A              
     e( 18 - 18) =     14.01302  eV     1   --> A              
     e( 19 - 19) =     14.55361  eV     1   --> A              
     e( 20 - 20) =     15.47611  eV     1   --> A              

 **************************************************************************

 **************************************************************************

                    xk=(   0.00000,   0.34641,  -0.24201  )

     Band symmetry, C_1 (1)     point group:

     e(  1 -  1) =     -4.45996  eV     1   --> A              
     e(  2 -  2) =     -3.86326  eV     1   --> A              
     e(  3 -  3) =      0.32496  eV     1   --> A              
     e(  4 -  4) =      1.09528  eV     1   --> A              
     e(  5 -  5) =      2.70171  eV     1   --> A              
     e(  6 -  6) =      3.96896  eV     1   --> A              
     e(  7 -  7) =      3.98045  eV     1   --> A              
     e(  8 -  8) =      4.42919  eV     1   --> A              
     e(  9 -  9) =      7.08927  eV     1   --> A              
     e( 10 - 10) =      7.80924  eV     1   --> A              
     e( 11 - 11) =      8.63113  eV     1   --> A              
     e( 12 - 12) =      9.87861  eV     1   --> A              
     e( 13 - 13) =     10.88694  eV     1   --> A              
     e( 14 - 14) =     12.04341  eV     1   --> A              
     e( 15 - 15) =     12.69966  eV     1   --> A              
     e( 16 - 16) =     13.10211  eV     1   --> A              
     e( 17 - 17) =     13.58297  eV     1   --> A              
     e( 18 - 18) =     14.01302  eV     1   --> A              
     e( 19 - 19) =     14.55361  eV     1   --> A              
     e( 20 - 20) =     15.47612  eV     1   --> A              

 **************************************************************************

 **************************************************************************

                    xk=(   0.00000,   0.34641,  -0.12100  )

     Band symmetry, C_1 (1)     point group:

     e(  1 -  1) =     -4.83380  eV     1   --> A              
     e(  2 -  2) =     -3.12589  eV     1   --> A              
     e(  3 -  3) =     -0.45858  eV     1   --> A              
     e(  4 -  4) =      1.71793  eV     1   --> A              
     e(  5 -  5) =      1.87887  eV     1   --> A              
     e(  6 -  6) =      3.66288  eV     1   --> A              
     e(  7 -  7) =      4.60736  eV     1   --> A              
     e(  8 -  8) =      4.91743  eV     1   --> A              
     e(  9 -  9) =      6.91111  eV     1   --> A              
     e( 10 - 10) =      8.18979  eV     1   --> A              
     e( 11 - 11) =      8.67835  eV     1   --> A              
     e( 12 - 12) =      9.86367  eV     1   --> A              
     e( 13 - 13) =     11.06683  eV     1   --> A              
     e( 14 - 14) =     11.55445  eV     1   --> A              
     e( 15 - 15) =     12.85384  eV     1   --> A              
     e( 16 - 16) =     12.87351  eV     1   --> A              
     e( 17 - 17) =     13.16859  eV     1   --> A              
     e( 18 - 18) =     14.10164  eV     1   --> A              
     e( 19 - 19) =     14.50115  eV     1   --> A              
     e( 20 - 20) =     15.96531  eV     1   --> A              

 **************************************************************************

 **************************************************************************

                    xk=(   0.00000,   0.46188,   0.00000  )

     Band symmetry, C_1 (1)     point group:

     e(  1 -  1) =     -4.26142  eV     1   --> A              
     e(  2 -  2) =     -1.92019  eV     1   --> A              
     e(  3 -  3) =     -1.67089  eV     1   --> A              
     e(  4 -  4) =      0.94702  eV     1   --> A              
     e(  5 -  5) =      1.35155  eV     1   --> A              
     e(  6 -  6) =      3.26862  eV     1   --> A              
     e(  7 -  7) =      3.62780  eV     1   --> A              
     e(  8 -  8) =      4.87892  eV     1   --> A              
     e(  9 -  9) =      6.67639  eV     1   --> A              
     e( 10 - 10) =      8.59746  eV     1   --> A              
     e( 11 - 11) =      9.21797  eV     1   --> A              
     e( 12 - 12) =      9.36797  eV     1   --> A              
     e( 13 - 13) =     10.13053  eV     1   --> A              
     e( 14 - 14) =     12.52237  eV     1   --> A              
     e( 15 - 15) =     12.79480  eV     1   --> A              
     e( 16 - 16) =     13.90722  eV     1   --> A              
     e( 17 - 17) =     14.44442  eV     1   --> A              
     e( 18 - 18) =     15.01681  eV     1   --> A              
     e( 19 - 19) =     15.92613  eV     1   --> A              
     e( 20 - 20) =     16.26906  eV     1   --> A              

 **************************************************************************

 **************************************************************************

                    xk=(   0.00000,   0.46188,   0.12100  )

     Band symmetry, C_1 (1)     point group:

     e(  1 -  1) =     -4.13875  eV     1   --> A              
     e(  2 -  2) =     -2.50080  eV     1   --> A              
     e(  3 -  3) =     -1.24798  eV     1   --> A              
     e(  4 -  4) =      0.56165  eV     1   --> A              
     e(  5 -  5) =      1.84637  eV     1   --> A              
     e(  6 -  6) =      3.37538  eV     1   --> A              
     e(  7 -  7) =      4.02515  eV     1   --> A              
     e(  8 -  8) =      4.64061  eV     1   --> A              
     e(  9 -  9) =      6.75401  eV     1   --> A              
     e( 10 - 10) =      7.70798  eV     1   --> A              
     e( 11 - 11) =      8.67268  eV     1   --> A              
     e( 12 - 12) =      9.84417  eV     1   --> A              
     e( 13 - 13) =     10.48576  eV     1   --> A              
     e( 14 - 14) =     11.52170  eV     1   --> A              
     e( 15 - 15) =     14.09668  eV     1   --> A              
     e( 16 - 16) =     14.41596  eV     1   --> A              
     e( 17 - 17) =     14.47898  eV     1   --> A              
     e( 18 - 18) =     14.72785  eV     1   --> A              
     e( 19 - 19) =     16.03806  eV     1   --> A              
     e( 20 - 20) =     16.38897  eV     1   --> A              

 **************************************************************************

 **************************************************************************

                    xk=(   0.00000,   0.46188,   0.24201  )

     Band symmetry, C_1 (1)     point group:

     e(  1 -  1) =     -3.77804  eV     1   --> A              
     e(  2 -  2) =     -3.20720  eV     1   --> A              
     e(  3 -  3) =     -0.74458  eV     1   --> A              
     e(  4 -  4) =     -0.12497  eV     1   --> A              
     e(  5 -  5) =      2.98796  eV     1   --> A              
     e(  6 -  6) =      3.68397  eV     1   --> A              
     e(  7 -  7) =      4.09281  eV     1   --> A              
     e(  8 -  8) =      4.14814  eV     1   --> A              
     e(  9 -  9) =      6.81492  eV     1   --> A              
     e( 10 - 10) =      7.37615  eV     1   --> A              
     e( 11 - 11) =      7.98525  eV     1   --> A              
     e( 12 - 12) =      8.86807  eV     1   --> A              
     e( 13 - 13) =     11.03473  eV     1   --> A              
     e( 14 - 14) =     12.58844  eV     1   --> A              
     e( 15 - 15) =     13.12744  eV     1   --> A              
     e( 16 - 16) =     14.69299  eV     1   --> A              
     e( 17 - 17) =     15.02509  eV     1   --> A              
     e( 18 - 18) =     15.20097  eV     1   --> A              
     e( 19 - 19) =     15.59251  eV     1   --> A              
     e( 20 - 20) =     15.70175  eV     1   --> A              

 **************************************************************************

 **************************************************************************

                    xk=(   0.00000,   0.46188,  -0.24201  )

     Band symmetry, C_1 (1)     point group:

     e(  1 -  1) =     -3.77804  eV     1   --> A              
     e(  2 -  2) =     -3.20720  eV     1   --> A              
     e(  3 -  3) =     -0.74458  eV     1   --> A              
     e(  4 -  4) =     -0.12497  eV     1   --> A              
     e(  5 -  5) =      2.98796  eV     1   --> A              
     e(  6 -  6) =      3.68397  eV     1   --> A              
     e(  7 -  7) =      4.09281  eV     1   --> A              
     e(  8 -  8) =      4.14814  eV     1   --> A              
     e(  9 -  9) =      6.81492  eV     1   --> A              
     e( 10 - 10) =      7.37615  eV     1   --> A              
     e( 11 - 11) =      7.98525  eV     1   --> A              
     e( 12 - 12) =      8.86807  eV     1   --> A              
     e( 13 - 13) =     11.03473  eV     1   --> A              
     e( 14 - 14) =     12.58844  eV     1   --> A              
     e( 15 - 15) =     13.12744  eV     1   --> A              
     e( 16 - 16) =     14.69299  eV     1   --> A              
     e( 17 - 17) =     15.02508  eV     1   --> A              
     e( 18 - 18) =     15.20097  eV     1   --> A              
     e( 19 - 19) =     15.59251  eV     1   --> A              
     e( 20 - 20) =     15.70175  eV     1   --> A              

 **************************************************************************

 **************************************************************************

                    xk=(   0.00000,   0.46188,  -0.12100  )

     Band symmetry, C_1 (1)     point group:

     e(  1 -  1) =     -4.13875  eV     1   --> A              
     e(  2 -  2) =     -2.50080  eV     1   --> A              
     e(  3 -  3) =     -1.24798  eV     1   --> A              
     e(  4 -  4) =      0.56165  eV     1   --> A              
     e(  5 -  5) =      1.84637  eV     1   --> A              
     e(  6 -  6) =      3.37538  eV     1   --> A              
     e(  7 -  7) =      4.02515  eV     1   --> A              
     e(  8 -  8) =      4.64061  eV     1   --> A              
     e(  9 -  9) =      6.75401  eV     1   --> A              
     e( 10 - 10) =      7.70798  eV     1   --> A              
     e( 11 - 11) =      8.67268  eV     1   --> A              
     e( 12 - 12) =      9.84417  eV     1   --> A              
     e( 13 - 13) =     10.48576  eV     1   --> A              
     e( 14 - 14) =     11.52170  eV     1   --> A              
     e( 15 - 15) =     14.09668  eV     1   --> A              
     e( 16 - 16) =     14.41596  eV     1   --> A              
     e( 17 - 17) =     14.47898  eV     1   --> A              
     e( 18 - 18) =     14.72785  eV     1   --> A              
     e( 19 - 19) =     16.03806  eV     1   --> A              
     e( 20 - 20) =     16.38898  eV     1   --> A              

 **************************************************************************

 **************************************************************************

                    xk=(   0.00000,  -0.57735,   0.00000  )

     Band symmetry, C_1 (1)     point group:

     e(  1 -  1) =     -3.78907  eV     1   --> A              
     e(  2 -  2) =     -2.22780  eV     1   --> A              
     e(  3 -  3) =     -1.41262  eV     1   --> A              
     e(  4 -  4) =      0.23274  eV     1   --> A              
     e(  5 -  5) =      1.54631  eV     1   --> A              
     e(  6 -  6) =      3.16923  eV     1   --> A              
     e(  7 -  7) =      3.21546  eV     1   --> A              
     e(  8 -  8) =      4.78375  eV     1   --> A              
     e(  9 -  9) =      6.55416  eV     1   --> A              
     e( 10 - 10) =      8.48225  eV     1   --> A              
     e( 11 - 11) =      9.13306  eV     1   --> A              
     e( 12 - 12) =      9.31879  eV     1   --> A              
     e( 13 - 13) =     10.57382  eV     1   --> A              
     e( 14 - 14) =     12.18274  eV     1   --> A              
     e( 15 - 15) =     12.62054  eV     1   --> A              
     e( 16 - 16) =     14.23904  eV     1   --> A              
     e( 17 - 17) =     15.92460  eV     1   --> A              
     e( 18 - 18) =     16.01462  eV     1   --> A              
     e( 19 - 19) =     16.82693  eV     1   --> A              
     e( 20 - 20) =     16.94118  eV     1   --> A              

 **************************************************************************

 **************************************************************************

                    xk=(   0.00000,  -0.57735,   0.12100  )

     Band symmetry, C_1 (1)     point group:

     e(  1 -  1) =     -3.67209  eV     1   --> A              
     e(  2 -  2) =     -2.35734  eV     1   --> A              
     e(  3 -  3) =     -1.49568  eV     1   --> A              
     e(  4 -  4) =     -0.12463  eV     1   --> A              
     e(  5 -  5) =      2.07700  eV     1   --> A              
     e(  6 -  6) =      3.27625  eV     1   --> A              
     e(  7 -  7) =      3.67305  eV     1   --> A              
     e(  8 -  8) =      4.54479  eV     1   --> A              
     e(  9 -  9) =      6.68699  eV     1   --> A              
     e( 10 - 10) =      7.56443  eV     1   --> A              
     e( 11 - 11) =      8.80258  eV     1   --> A              
     e( 12 - 12) =      9.80396  eV     1   --> A              
     e( 13 - 13) =     10.12087  eV     1   --> A              
     e( 14 - 14) =     11.43757  eV     1   --> A              
     e( 15 - 15) =     14.49181  eV     1   --> A              
     e( 16 - 16) =     14.83174  eV     1   --> A              
     e( 17 - 17) =     15.15688  eV     1   --> A              
     e( 18 - 18) =     16.48887  eV     1   --> A              
     e( 19 - 19) =     16.73954  eV     1   --> A              
     e( 20 - 20) =     16.92922  eV     1   --> A              

 **************************************************************************

 **************************************************************************

                    xk=(   0.00000,  -0.57735,   0.24201  )

     Band symmetry, C_1 (1)     point group:

     e(  1 -  1) =     -3.33353  eV     1   --> A              
     e(  2 -  2) =     -2.82869  eV     1   --> A              
     e(  3 -  3) =     -1.28662  eV     1   --> A              
     e(  4 -  4) =     -0.76430  eV     1   --> A              
     e(  5 -  5) =      3.21032  eV     1   --> A              
     e(  6 -  6) =      3.58560  eV     1   --> A              
     e(  7 -  7) =      4.05099  eV     1   --> A              
     e(  8 -  8) =      4.08736  eV     1   --> A              
     e(  9 -  9) =      6.86064  eV     1   --> A              
     e( 10 - 10) =      7.02233  eV     1   --> A              
     e( 11 - 11) =      8.01978  eV     1   --> A              
     e( 12 - 12) =      8.26580  eV     1   --> A              
     e( 13 - 13) =     11.02752  eV     1   --> A              
     e( 14 - 14) =     12.67085  eV     1   --> A              
     e( 15 - 15) =     13.10874  eV     1   --> A              
     e( 16 - 16) =     14.99818  eV     1   --> A              
     e( 17 - 17) =     16.74513  eV     1   --> A              
     e( 18 - 18) =     16.82466  eV     1   --> A              
     e( 19 - 19) =     16.82831  eV     1   --> A              
     e( 20 - 20) =     17.15217  eV     1   --> A              

 **************************************************************************

 **************************************************************************

                    xk=(   0.00000,  -0.57735,  -0.24201  )

     Band symmetry, C_1 (1)     point group:

     e(  1 -  1) =     -3.33353  eV     1   --> A              
     e(  2 -  2) =     -2.82869  eV     1   --> A              
     e(  3 -  3) =     -1.28662  eV     1   --> A              
     e(  4 -  4) =     -0.76430  eV     1   --> A              
     e(  5 -  5) =      3.21032  eV     1   --> A              
     e(  6 -  6) =      3.58560  eV     1   --> A              
     e(  7 -  7) =      4.05099  eV     1   --> A              
     e(  8 -  8) =      4.08736  eV     1   --> A              
     e(  9 -  9) =      6.86064  eV     1   --> A              
     e( 10 - 10) =      7.02233  eV     1   --> A              
     e( 11 - 11) =      8.01978  eV     1   --> A              
     e( 12 - 12) =      8.26580  eV     1   --> A              
     e( 13 - 13) =     11.02752  eV     1   --> A              
     e( 14 - 14) =     12.67085  eV     1   --> A              
     e( 15 - 15) =     13.10874  eV     1   --> A              
     e( 16 - 16) =     14.99819  eV     1   --> A              
     e( 17 - 17) =     16.74513  eV     1   --> A              
     e( 18 - 18) =     16.82467  eV     1   --> A              
     e( 19 - 19) =     16.82832  eV     1   --> A              
     e( 20 - 20) =     17.15213  eV     1   --> A              

 **************************************************************************

 **************************************************************************

                    xk=(   0.00000,  -0.57735,  -0.12100  )

     Band symmetry, C_1 (1)     point group:

     e(  1 -  1) =     -3.67209  eV     1   --> A              
     e(  2 -  2) =     -2.35734  eV     1   --> A              
     e(  3 -  3) =     -1.49568  eV     1   --> A              
     e(  4 -  4) =     -0.12463  eV     1   --> A              
     e(  5 -  5) =      2.07700  eV     1   --> A              
     e(  6 -  6) =      3.27625  eV     1   --> A              
     e(  7 -  7) =      3.67305  eV     1   --> A              
     e(  8 -  8) =      4.54479  eV     1   --> A              
     e(  9 -  9) =      6.68699  eV     1   --> A              
     e( 10 - 10) =      7.56443  eV     1   --> A              
     e( 11 - 11) =      8.80258  eV     1   --> A              
     e( 12 - 12) =      9.80396  eV     1   --> A              
     e( 13 - 13) =     10.12087  eV     1   --> A              
     e( 14 - 14) =     11.43757  eV     1   --> A              
     e( 15 - 15) =     14.49181  eV     1   --> A              
     e( 16 - 16) =     14.83174  eV     1   --> A              
     e( 17 - 17) =     15.15688  eV     1   --> A              
     e( 18 - 18) =     16.48887  eV     1   --> A              
     e( 19 - 19) =     16.73955  eV     1   --> A              
     e( 20 - 20) =     16.92944  eV     1   --> A              

 **************************************************************************

 **************************************************************************

                    xk=(   0.00000,  -0.46188,   0.00000  )

     Band symmetry, C_1 (1)     point group:

     e(  1 -  1) =     -4.26142  eV     1   --> A              
     e(  2 -  2) =     -1.92019  eV     1   --> A              
     e(  3 -  3) =     -1.67089  eV     1   --> A              
     e(  4 -  4) =      0.94702  eV     1   --> A              
     e(  5 -  5) =      1.35155  eV     1   --> A              
     e(  6 -  6) =      3.26862  eV     1   --> A              
     e(  7 -  7) =      3.62780  eV     1   --> A              
     e(  8 -  8) =      4.87892  eV     1   --> A              
     e(  9 -  9) =      6.67639  eV     1   --> A              
     e( 10 - 10) =      8.59746  eV     1   --> A              
     e( 11 - 11) =      9.21797  eV     1   --> A              
     e( 12 - 12) =      9.36797  eV     1   --> A              
     e( 13 - 13) =     10.13053  eV     1   --> A              
     e( 14 - 14) =     12.52237  eV     1   --> A              
     e( 15 - 15) =     12.79480  eV     1   --> A              
     e( 16 - 16) =     13.90722  eV     1   --> A              
     e( 17 - 17) =     14.44443  eV     1   --> A              
     e( 18 - 18) =     15.01681  eV     1   --> A              
     e( 19 - 19) =     15.92615  eV     1   --> A              
     e( 20 - 20) =     16.26906  eV     1   --> A              

 **************************************************************************

 **************************************************************************

                    xk=(   0.00000,  -0.46188,   0.12100  )

     Band symmetry, C_1 (1)     point group:

     e(  1 -  1) =     -4.13875  eV     1   --> A              
     e(  2 -  2) =     -2.50080  eV     1   --> A              
     e(  3 -  3) =     -1.24798  eV     1   --> A              
     e(  4 -  4) =      0.56165  eV     1   --> A              
     e(  5 -  5) =      1.84637  eV     1   --> A              
     e(  6 -  6) =      3.37538  eV     1   --> A              
     e(  7 -  7) =      4.02515  eV     1   --> A              
     e(  8 -  8) =      4.64061  eV     1   --> A              
     e(  9 -  9) =      6.75401  eV     1   --> A              
     e( 10 - 10) =      7.70798  eV     1   --> A              
     e( 11 - 11) =      8.67268  eV     1   --> A              
     e( 12 - 12) =      9.84417  eV     1   --> A              
     e( 13 - 13) =     10.48576  eV     1   --> A              
     e( 14 - 14) =     11.52170  eV     1   --> A              
     e( 15 - 15) =     14.09668  eV     1   --> A              
     e( 16 - 16) =     14.41596  eV     1   --> A              
     e( 17 - 17) =     14.47898  eV     1   --> A              
     e( 18 - 18) =     14.72785  eV     1   --> A              
     e( 19 - 19) =     16.03806  eV     1   --> A              
     e( 20 - 20) =     16.38897  eV     1   --> A              

 **************************************************************************

 **************************************************************************

                    xk=(   0.00000,  -0.46188,   0.24201  )

     Band symmetry, C_1 (1)     point group:

     e(  1 -  1) =     -3.77804  eV     1   --> A              
     e(  2 -  2) =     -3.20720  eV     1   --> A              
     e(  3 -  3) =     -0.74458  eV     1   --> A              
     e(  4 -  4) =     -0.12497  eV     1   --> A              
     e(  5 -  5) =      2.98796  eV     1   --> A              
     e(  6 -  6) =      3.68397  eV     1   --> A              
     e(  7 -  7) =      4.09281  eV     1   --> A              
     e(  8 -  8) =      4.14814  eV     1   --> A              
     e(  9 -  9) =      6.81492  eV     1   --> A              
     e( 10 - 10) =      7.37615  eV     1   --> A              
     e( 11 - 11) =      7.98525  eV     1   --> A              
     e( 12 - 12) =      8.86807  eV     1   --> A              
     e( 13 - 13) =     11.03473  eV     1   --> A              
     e( 14 - 14) =     12.58844  eV     1   --> A              
     e( 15 - 15) =     13.12744  eV     1   --> A              
     e( 16 - 16) =     14.69299  eV     1   --> A              
     e( 17 - 17) =     15.02508  eV     1   --> A              
     e( 18 - 18) =     15.20097  eV     1   --> A              
     e( 19 - 19) =     15.59251  eV     1   --> A              
     e( 20 - 20) =     15.70175  eV     1   --> A              

 **************************************************************************

 **************************************************************************

                    xk=(   0.00000,  -0.46188,  -0.24201  )

     Band symmetry, C_1 (1)     point group:

     e(  1 -  1) =     -3.77804  eV     1   --> A              
     e(  2 -  2) =     -3.20720  eV     1   --> A              
     e(  3 -  3) =     -0.74458  eV     1   --> A              
     e(  4 -  4) =     -0.12497  eV     1   --> A              
     e(  5 -  5) =      2.98796  eV     1   --> A              
     e(  6 -  6) =      3.68397  eV     1   --> A              
     e(  7 -  7) =      4.09281  eV     1   --> A              
     e(  8 -  8) =      4.14814  eV     1   --> A              
     e(  9 -  9) =      6.81492  eV     1   --> A              
     e( 10 - 10) =      7.37615  eV     1   --> A              
     e( 11 - 11) =      7.98525  eV     1   --> A              
     e( 12 - 12) =      8.86807  eV     1   --> A              
     e( 13 - 13) =     11.03473  eV     1   --> A              
     e( 14 - 14) =     12.58844  eV     1   --> A              
     e( 15 - 15) =     13.12744  eV     1   --> A              
     e( 16 - 16) =     14.69299  eV     1   --> A              
     e( 17 - 17) =     15.02508  eV     1   --> A              
     e( 18 - 18) =     15.20097  eV     1   --> A              
     e( 19 - 19) =     15.59251  eV     1   --> A              
     e( 20 - 20) =     15.70175  eV     1   --> A              

 **************************************************************************

 **************************************************************************

                    xk=(   0.00000,  -0.46188,  -0.12100  )

     Band symmetry, C_1 (1)     point group:

     e(  1 -  1) =     -4.13875  eV     1   --> A              
     e(  2 -  2) =     -2.50080  eV     1   --> A              
     e(  3 -  3) =     -1.24798  eV     1   --> A              
     e(  4 -  4) =      0.56165  eV     1   --> A              
     e(  5 -  5) =      1.84637  eV     1   --> A              
     e(  6 -  6) =      3.37538  eV     1   --> A              
     e(  7 -  7) =      4.02515  eV     1   --> A              
     e(  8 -  8) =      4.64061  eV     1   --> A              
     e(  9 -  9) =      6.75401  eV     1   --> A              
     e( 10 - 10) =      7.70798  eV     1   --> A              
     e( 11 - 11) =      8.67268  eV     1   --> A              
     e( 12 - 12) =      9.84417  eV     1   --> A              
     e( 13 - 13) =     10.48576  eV     1   --> A              
     e( 14 - 14) =     11.52170  eV     1   --> A              
     e( 15 - 15) =     14.09668  eV     1   --> A              
     e( 16 - 16) =     14.41596  eV     1   --> A              
     e( 17 - 17) =     14.47898  eV     1   --> A              
     e( 18 - 18) =     14.72785  eV     1   --> A              
     e( 19 - 19) =     16.03806  eV     1   --> A              
     e( 20 - 20) =     16.38897  eV     1   --> A              

 **************************************************************************

 **************************************************************************

                    xk=(   0.00000,  -0.34641,   0.00000  )

     Band symmetry, C_1 (1)     point group:

     e(  1 -  1) =     -4.96042  eV     1   --> A              
     e(  2 -  2) =     -2.64915  eV     1   --> A              
     e(  3 -  3) =     -0.95759  eV     1   --> A              
     e(  4 -  4) =      1.40745  eV     1   --> A              
     e(  5 -  5) =      2.28477  eV     1   --> A              
     e(  6 -  6) =      3.55696  eV     1   --> A              
     e(  7 -  7) =      4.41824  eV     1   --> A              
     e(  8 -  8) =      5.15385  eV     1   --> A              
     e(  9 -  9) =      6.99215  eV     1   --> A              
     e( 10 - 10) =      8.92781  eV     1   --> A              
     e( 11 - 11) =      9.43197  eV     1   --> A              
     e( 12 - 12) =      9.47233  eV     1   --> A              
     e( 13 - 13) =      9.51800  eV     1   --> A              
     e( 14 - 14) =     12.01382  eV     1   --> A              
     e( 15 - 15) =     12.82607  eV     1   --> A              
     e( 16 - 16) =     12.87862  eV     1   --> A              
     e( 17 - 17) =     13.40759  eV     1   --> A              
     e( 18 - 18) =     13.86413  eV     1   --> A              
     e( 19 - 19) =     14.41023  eV     1   --> A              
     e( 20 - 20) =     16.27447  eV     1   --> A              

 **************************************************************************

 **************************************************************************

                    xk=(   0.00000,  -0.34641,   0.12100  )

     Band symmetry, C_1 (1)     point group:

     e(  1 -  1) =     -4.83380  eV     1   --> A              
     e(  2 -  2) =     -3.12589  eV     1   --> A              
     e(  3 -  3) =     -0.45858  eV     1   --> A              
     e(  4 -  4) =      1.71793  eV     1   --> A              
     e(  5 -  5) =      1.87887  eV     1   --> A              
     e(  6 -  6) =      3.66288  eV     1   --> A              
     e(  7 -  7) =      4.60736  eV     1   --> A              
     e(  8 -  8) =      4.91743  eV     1   --> A              
     e(  9 -  9) =      6.91111  eV     1   --> A              
     e( 10 - 10) =      8.18979  eV     1   --> A              
     e( 11 - 11) =      8.67835  eV     1   --> A              
     e( 12 - 12) =      9.86367  eV     1   --> A              
     e( 13 - 13) =     11.06683  eV     1   --> A              
     e( 14 - 14) =     11.55445  eV     1   --> A              
     e( 15 - 15) =     12.85384  eV     1   --> A              
     e( 16 - 16) =     12.87351  eV     1   --> A              
     e( 17 - 17) =     13.16859  eV     1   --> A              
     e( 18 - 18) =     14.10164  eV     1   --> A              
     e( 19 - 19) =     14.50115  eV     1   --> A              
     e( 20 - 20) =     15.96531  eV     1   --> A              

 **************************************************************************

 **************************************************************************

                    xk=(   0.00000,  -0.34641,   0.24201  )

     Band symmetry, C_1 (1)     point group:

     e(  1 -  1) =     -4.45996  eV     1   --> A              
     e(  2 -  2) =     -3.86326  eV     1   --> A              
     e(  3 -  3) =      0.32496  eV     1   --> A              
     e(  4 -  4) =      1.09528  eV     1   --> A              
     e(  5 -  5) =      2.70171  eV     1   --> A              
     e(  6 -  6) =      3.96896  eV     1   --> A              
     e(  7 -  7) =      3.98045  eV     1   --> A              
     e(  8 -  8) =      4.42919  eV     1   --> A              
     e(  9 -  9) =      7.08927  eV     1   --> A              
     e( 10 - 10) =      7.80924  eV     1   --> A              
     e( 11 - 11) =      8.63113  eV     1   --> A              
     e( 12 - 12) =      9.87861  eV     1   --> A              
     e( 13 - 13) =     10.88694  eV     1   --> A              
     e( 14 - 14) =     12.04341  eV     1   --> A              
     e( 15 - 15) =     12.69966  eV     1   --> A              
     e( 16 - 16) =     13.10211  eV     1   --> A              
     e( 17 - 17) =     13.58297  eV     1   --> A              
     e( 18 - 18) =     14.01302  eV     1   --> A              
     e( 19 - 19) =     14.55361  eV     1   --> A              
     e( 20 - 20) =     15.47612  eV     1   --> A              

 **************************************************************************

 **************************************************************************

                    xk=(   0.00000,  -0.34641,  -0.24201  )

     Band symmetry, C_1 (1)     point group:

     e(  1 -  1) =     -4.45996  eV     1   --> A              
     e(  2 -  2) =     -3.86326  eV     1   --> A              
     e(  3 -  3) =      0.32496  eV     1   --> A              
     e(  4 -  4) =      1.09528  eV     1   --> A              
     e(  5 -  5) =      2.70171  eV     1   --> A              
     e(  6 -  6) =      3.96896  eV     1   --> A              
     e(  7 -  7) =      3.98045  eV     1   --> A              
     e(  8 -  8) =      4.42919  eV     1   --> A              
     e(  9 -  9) =      7.08927  eV     1   --> A              
     e( 10 - 10) =      7.80924  eV     1   --> A              
     e( 11 - 11) =      8.63113  eV     1   --> A              
     e( 12 - 12) =      9.87861  eV     1   --> A              
     e( 13 - 13) =     10.88694  eV     1   --> A              
     e( 14 - 14) =     12.04341  eV     1   --> A              
     e( 15 - 15) =     12.69966  eV     1   --> A              
     e( 16 - 16) =     13.10211  eV     1   --> A              
     e( 17 - 17) =     13.58297  eV     1   --> A              
     e( 18 - 18) =     14.01302  eV     1   --> A              
     e( 19 - 19) =     14.55361  eV     1   --> A              
     e( 20 - 20) =     15.47612  eV     1   --> A              

 **************************************************************************

 **************************************************************************

                    xk=(   0.00000,  -0.34641,  -0.12100  )

     Band symmetry, C_1 (1)     point group:

     e(  1 -  1) =     -4.83380  eV     1   --> A              
     e(  2 -  2) =     -3.12589  eV     1   --> A              
     e(  3 -  3) =     -0.45858  eV     1   --> A              
     e(  4 -  4) =      1.71793  eV     1   --> A              
     e(  5 -  5) =      1.87887  eV     1   --> A              
     e(  6 -  6) =      3.66288  eV     1   --> A              
     e(  7 -  7) =      4.60736  eV     1   --> A              
     e(  8 -  8) =      4.91743  eV     1   --> A              
     e(  9 -  9) =      6.91111  eV     1   --> A              
     e( 10 - 10) =      8.18979  eV     1   --> A              
     e( 11 - 11) =      8.67835  eV     1   --> A              
     e( 12 - 12) =      9.86367  eV     1   --> A              
     e( 13 - 13) =     11.06683  eV     1   --> A              
     e( 14 - 14) =     11.55445  eV     1   --> A              
     e( 15 - 15) =     12.85384  eV     1   --> A              
     e( 16 - 16) =     12.87351  eV     1   --> A              
     e( 17 - 17) =     13.16859  eV     1   --> A              
     e( 18 - 18) =     14.10164  eV     1   --> A              
     e( 19 - 19) =     14.50116  eV     1   --> A              
     e( 20 - 20) =     15.96531  eV     1   --> A              

 **************************************************************************

 **************************************************************************

                    xk=(   0.00000,  -0.23094,   0.00000  )

     Band symmetry, C_1 (1)     point group:

     e(  1 -  1) =     -5.51470  eV     1   --> A              
     e(  2 -  2) =     -3.21879  eV     1   --> A              
     e(  3 -  3) =     -0.83157  eV     1   --> A              
     e(  4 -  4) =      2.36030  eV     1   --> A              
     e(  5 -  5) =      3.82103  eV     1   --> A              
     e(  6 -  6) =      3.99483  eV     1   --> A              
     e(  7 -  7) =      5.17810  eV     1   --> A              
     e(  8 -  8) =      5.56665  eV     1   --> A              
     e(  9 -  9) =      7.37457  eV     1   --> A              
     e( 10 - 10) =      8.94010  eV     1   --> A              
     e( 11 - 11) =      9.19153  eV     1   --> A              
     e( 12 - 12) =      9.42776  eV     1   --> A              
     e( 13 - 13) =      9.77843  eV     1   --> A              
     e( 14 - 14) =     10.74444  eV     1   --> A              
     e( 15 - 15) =     11.91876  eV     1   --> A              
     e( 16 - 16) =     11.95750  eV     1   --> A              
     e( 17 - 17) =     12.36269  eV     1   --> A              
     e( 18 - 18) =     13.11627  eV     1   --> A              
     e( 19 - 19) =     15.23301  eV     1   --> A              
     e( 20 - 20) =     15.30817  eV     1   --> A              

 **************************************************************************

 **************************************************************************

                    xk=(   0.00000,  -0.23094,   0.12100  )

     Band symmetry, C_1 (1)     point group:

     e(  1 -  1) =     -5.38651  eV     1   --> A              
     e(  2 -  2) =     -3.66986  eV     1   --> A              
     e(  3 -  3) =     -0.18759  eV     1   --> A              
     e(  4 -  4) =      2.52149  eV     1   --> A              
     e(  5 -  5) =      3.31590  eV     1   --> A              
     e(  6 -  6) =      4.09908  eV     1   --> A              
     e(  7 -  7) =      4.99905  eV     1   --> A              
     e(  8 -  8) =      5.33320  eV     1   --> A              
     e(  9 -  9) =      7.25841  eV     1   --> A              
     e( 10 - 10) =      8.80407  eV     1   --> A              
     e( 11 - 11) =      9.04672  eV     1   --> A              
     e( 12 - 12) =      9.50458  eV     1   --> A              
     e( 13 - 13) =     10.33429  eV     1   --> A              
     e( 14 - 14) =     11.45413  eV     1   --> A              
     e( 15 - 15) =     11.59215  eV     1   --> A              
     e( 16 - 16) =     12.05937  eV     1   --> A              
     e( 17 - 17) =     12.27205  eV     1   --> A              
     e( 18 - 18) =     13.29726  eV     1   --> A              
     e( 19 - 19) =     14.82307  eV     1   --> A              
     e( 20 - 20) =     15.55526  eV     1   --> A              

 **************************************************************************

 **************************************************************************

                    xk=(   0.00000,  -0.23094,   0.24201  )

     Band symmetry, C_1 (1)     point group:

     e(  1 -  1) =     -5.00808  eV     1   --> A              
     e(  2 -  2) =     -4.40511  eV     1   --> A              
     e(  3 -  3) =      1.06593  eV     1   --> A              
     e(  4 -  4) =      2.31267  eV     1   --> A              
     e(  5 -  5) =      3.04824  eV     1   --> A              
     e(  6 -  6) =      3.99159  eV     1   --> A              
     e(  7 -  7) =      4.40018  eV     1   --> A              
     e(  8 -  8) =      4.85269  eV     1   --> A              
     e(  9 -  9) =      7.63716  eV     1   --> A              
     e( 10 - 10) =      8.31116  eV     1   --> A              
     e( 11 - 11) =      9.52484  eV     1   --> A              
     e( 12 - 12) =     10.18743  eV     1   --> A              
     e( 13 - 13) =     10.34721  eV     1   --> A              
     e( 14 - 14) =     10.93476  eV     1   --> A              
     e( 15 - 15) =     11.58141  eV     1   --> A              
     e( 16 - 16) =     11.93177  eV     1   --> A              
     e( 17 - 17) =     13.13821  eV     1   --> A              
     e( 18 - 18) =     13.79970  eV     1   --> A              
     e( 19 - 19) =     14.50562  eV     1   --> A              
     e( 20 - 20) =     15.33897  eV     1   --> A              

 **************************************************************************

 **************************************************************************

                    xk=(   0.00000,  -0.23094,  -0.24201  )

     Band symmetry, C_1 (1)     point group:

     e(  1 -  1) =     -5.00808  eV     1   --> A              
     e(  2 -  2) =     -4.40511  eV     1   --> A              
     e(  3 -  3) =      1.06593  eV     1   --> A              
     e(  4 -  4) =      2.31267  eV     1   --> A              
     e(  5 -  5) =      3.04824  eV     1   --> A              
     e(  6 -  6) =      3.99159  eV     1   --> A              
     e(  7 -  7) =      4.40018  eV     1   --> A              
     e(  8 -  8) =      4.85269  eV     1   --> A              
     e(  9 -  9) =      7.63716  eV     1   --> A              
     e( 10 - 10) =      8.31116  eV     1   --> A              
     e( 11 - 11) =      9.52484  eV     1   --> A              
     e( 12 - 12) =     10.18743  eV     1   --> A              
     e( 13 - 13) =     10.34721  eV     1   --> A              
     e( 14 - 14) =     10.93476  eV     1   --> A              
     e( 15 - 15) =     11.58141  eV     1   --> A              
     e( 16 - 16) =     11.93177  eV     1   --> A              
     e( 17 - 17) =     13.13821  eV     1   --> A              
     e( 18 - 18) =     13.79970  eV     1   --> A              
     e( 19 - 19) =     14.50562  eV     1   --> A              
     e( 20 - 20) =     15.33897  eV     1   --> A              

 **************************************************************************

 **************************************************************************

                    xk=(   0.00000,  -0.23094,  -0.12100  )

     Band symmetry, C_1 (1)     point group:

     e(  1 -  1) =     -5.38651  eV     1   --> A              
     e(  2 -  2) =     -3.66986  eV     1   --> A              
     e(  3 -  3) =     -0.18759  eV     1   --> A              
     e(  4 -  4) =      2.52149  eV     1   --> A              
     e(  5 -  5) =      3.31590  eV     1   --> A              
     e(  6 -  6) =      4.09908  eV     1   --> A              
     e(  7 -  7) =      4.99905  eV     1   --> A              
     e(  8 -  8) =      5.33320  eV     1   --> A              
     e(  9 -  9) =      7.25841  eV     1   --> A              
     e( 10 - 10) =      8.80407  eV     1   --> A              
     e( 11 - 11) =      9.04672  eV     1   --> A              
     e( 12 - 12) =      9.50458  eV     1   --> A              
     e( 13 - 13) =     10.33429  eV     1   --> A              
     e( 14 - 14) =     11.45413  eV     1   --> A              
     e( 15 - 15) =     11.59215  eV     1   --> A              
     e( 16 - 16) =     12.05937  eV     1   --> A              
     e( 17 - 17) =     12.27205  eV     1   --> A              
     e( 18 - 18) =     13.29726  eV     1   --> A              
     e( 19 - 19) =     14.82307  eV     1   --> A              
     e( 20 - 20) =     15.55526  eV     1   --> A              

 **************************************************************************

 **************************************************************************

                    xk=(   0.00000,  -0.11547,   0.00000  )

     Band symmetry, C_1 (1)     point group:

     e(  1 -  1) =     -5.85912  eV     1   --> A              
     e(  2 -  2) =     -3.57052  eV     1   --> A              
     e(  3 -  3) =     -0.95481  eV     1   --> A              
     e(  4 -  4) =      3.77388  eV     1   --> A              
     e(  5 -  5) =      4.46874  eV     1   --> A              
     e(  6 -  6) =      5.35375  eV     1   --> A              
     e(  7 -  7) =      5.69238  eV     1   --> A              
     e(  8 -  8) =      6.00286  eV     1   --> A              
     e(  9 -  9) =      7.63553  eV     1   --> A              
     e( 10 - 10) =      8.49358  eV     1   --> A              
     e( 11 - 11) =      8.55845  eV     1   --> A              
     e( 12 - 12) =      8.61655  eV     1   --> A              
     e( 13 - 13) =      9.85685  eV     1   --> A              
     e( 14 - 14) =     10.71227  eV     1   --> A              
     e( 15 - 15) =     10.81390  eV     1   --> A              
     e( 16 - 16) =     11.46573  eV     1   --> A              
     e( 17 - 17) =     11.97696  eV     1   --> A              
     e( 18 - 18) =     13.78847  eV     1   --> A              
     e( 19 - 19) =     13.92183  eV     1   --> A              
     e( 20 - 20) =     15.16466  eV     1   --> A              

 **************************************************************************

 **************************************************************************

                    xk=(   0.00000,  -0.11547,   0.12100  )

     Band symmetry, C_1 (1)     point group:

     e(  1 -  1) =     -5.73029  eV     1   --> A              
     e(  2 -  2) =     -4.01220  eV     1   --> A              
     e(  3 -  3) =     -0.27798  eV     1   --> A              
     e(  4 -  4) =      3.89025  eV     1   --> A              
     e(  5 -  5) =      4.47203  eV     1   --> A              
     e(  6 -  6) =      4.57028  eV     1   --> A              
     e(  7 -  7) =      5.40720  eV     1   --> A              
     e(  8 -  8) =      5.77238  eV     1   --> A              
     e(  9 -  9) =      7.71910  eV     1   --> A              
     e( 10 - 10) =      8.50929  eV     1   --> A              
     e( 11 - 11) =      8.78470  eV     1   --> A              
     e( 12 - 12) =      9.11653  eV     1   --> A              
     e( 13 - 13) =      9.82968  eV     1   --> A              
     e( 14 - 14) =     10.52272  eV     1   --> A              
     e( 15 - 15) =     10.60888  eV     1   --> A              
     e( 16 - 16) =     12.04759  eV     1   --> A              
     e( 17 - 17) =     12.35162  eV     1   --> A              
     e( 18 - 18) =     14.02314  eV     1   --> A              
     e( 19 - 19) =     14.07919  eV     1   --> A              
     e( 20 - 20) =     15.44155  eV     1   --> A              

[...]
     e(  4 -  4) =      0.42606  eV     1   --> A              
     e(  5 -  5) =      2.82027  eV     1   --> A              
     e(  6 -  6) =      3.33491  eV     1   --> A              
     e(  7 -  7) =      3.66357  eV     1   --> A              
     e(  8 -  8) =      4.21120  eV     1   --> A              
     e(  9 -  9) =      7.42452  eV     1   --> A              
     e( 10 - 10) =      8.24953  eV     1   --> A              
     e( 11 - 11) =      8.49601  eV     1   --> A              
     e( 12 - 12) =      9.41756  eV     1   --> A              
     e( 13 - 13) =     10.55926  eV     1   --> A              
     e( 14 - 14) =     11.91221  eV     1   --> A              
     e( 15 - 15) =     12.37929  eV     1   --> A              
     e( 16 - 16) =     13.12215  eV     1   --> A              
     e( 17 - 17) =     14.20427  eV     1   --> A              
     e( 18 - 18) =     15.30182  eV     1   --> A              
     e( 19 - 19) =     15.95901  eV     1   --> A              
     e( 20 - 20) =     16.32360  eV     1   --> A              

 **************************************************************************

 **************************************************************************

                    xk=(  -0.10000,  -0.40415,  -0.24201  )

     Band symmetry, C_1 (1)     point group:

     e(  1 -  1) =     -4.04566  eV     1   --> A              
     e(  2 -  2) =     -3.45951  eV     1   --> A              
     e(  3 -  3) =     -0.25002  eV     1   --> A              
     e(  4 -  4) =      0.42606  eV     1   --> A              
     e(  5 -  5) =      2.82027  eV     1   --> A              
     e(  6 -  6) =      3.33491  eV     1   --> A              
     e(  7 -  7) =      3.66357  eV     1   --> A              
     e(  8 -  8) =      4.21120  eV     1   --> A              
     e(  9 -  9) =      7.42452  eV     1   --> A              
     e( 10 - 10) =      8.24953  eV     1   --> A              
     e( 11 - 11) =      8.49601  eV     1   --> A              
     e( 12 - 12) =      9.41756  eV     1   --> A              
     e( 13 - 13) =     10.55926  eV     1   --> A              
     e( 14 - 14) =     11.91221  eV     1   --> A              
     e( 15 - 15) =     12.37929  eV     1   --> A              
     e( 16 - 16) =     13.12215  eV     1   --> A              
     e( 17 - 17) =     14.20427  eV     1   --> A              
     e( 18 - 18) =     15.30182  eV     1   --> A              
     e( 19 - 19) =     15.95901  eV     1   --> A              
     e( 20 - 20) =     16.32361  eV     1   --> A              

 **************************************************************************

 **************************************************************************

                    xk=(  -0.10000,  -0.40415,  -0.12100  )

     Band symmetry, C_1 (1)     point group:

     e(  1 -  1) =     -4.41335  eV     1   --> A              
     e(  2 -  2) =     -2.72787  eV     1   --> A              
     e(  3 -  3) =     -0.85988  eV     1   --> A              
     e(  4 -  4) =      1.14342  eV     1   --> A              
     e(  5 -  5) =      1.79365  eV     1   --> A              
     e(  6 -  6) =      2.93856  eV     1   --> A              
     e(  7 -  7) =      4.20673  eV     1   --> A              
     e(  8 -  8) =      4.41025  eV     1   --> A              
     e(  9 -  9) =      7.48869  eV     1   --> A              
     e( 10 - 10) =      8.26895  eV     1   --> A              
     e( 11 - 11) =      9.09047  eV     1   --> A              
     e( 12 - 12) =      9.36289  eV     1   --> A              
     e( 13 - 13) =     11.09347  eV     1   --> A              
     e( 14 - 14) =     11.56240  eV     1   --> A              
     e( 15 - 15) =     12.39001  eV     1   --> A              
     e( 16 - 16) =     13.17396  eV     1   --> A              
     e( 17 - 17) =     14.41841  eV     1   --> A              
     e( 18 - 18) =     14.57214  eV     1   --> A              
     e( 19 - 19) =     15.29657  eV     1   --> A              
     e( 20 - 20) =     16.54979  eV     1   --> A              

 **************************************************************************

 **************************************************************************

                    xk=(  -0.10000,  -0.28868,   0.00000  )

     Band symmetry, C_1 (1)     point group:

     e(  1 -  1) =     -5.17751  eV     1   --> A              
     e(  2 -  2) =     -2.87295  eV     1   --> A              
     e(  3 -  3) =     -0.83267  eV     1   --> A              
     e(  4 -  4) =      1.77266  eV     1   --> A              
     e(  5 -  5) =      2.92982  eV     1   --> A              
     e(  6 -  6) =      3.24743  eV     1   --> A              
     e(  7 -  7) =      4.83002  eV     1   --> A              
     e(  8 -  8) =      4.95310  eV     1   --> A              
     e(  9 -  9) =      7.83627  eV     1   --> A              
     e( 10 - 10) =      8.96446  eV     1   --> A              
     e( 11 - 11) =      9.25886  eV     1   --> A              
     e( 12 - 12) =      9.75602  eV     1   --> A              
     e( 13 - 13) =      9.88975  eV     1   --> A              
     e( 14 - 14) =     10.79378  eV     1   --> A              
     e( 15 - 15) =     11.69115  eV     1   --> A              
     e( 16 - 16) =     12.34961  eV     1   --> A              
     e( 17 - 17) =     13.86254  eV     1   --> A              
     e( 18 - 18) =     14.12563  eV     1   --> A              
     e( 19 - 19) =     14.51114  eV     1   --> A              
     e( 20 - 20) =     15.49466  eV     1   --> A              

 **************************************************************************

 **************************************************************************

                    xk=(  -0.10000,  -0.28868,   0.12100  )

     Band symmetry, C_1 (1)     point group:

     e(  1 -  1) =     -5.05016  eV     1   --> A              
     e(  2 -  2) =     -3.33716  eV     1   --> A              
     e(  3 -  3) =     -0.25800  eV     1   --> A              
     e(  4 -  4) =      2.01245  eV     1   --> A              
     e(  5 -  5) =      2.46850  eV     1   --> A              
     e(  6 -  6) =      3.38189  eV     1   --> A              
     e(  7 -  7) =      4.68066  eV     1   --> A              
     e(  8 -  8) =      4.87982  eV     1   --> A              
     e(  9 -  9) =      7.65290  eV     1   --> A              
     e( 10 - 10) =      8.64334  eV     1   --> A              
     e( 11 - 11) =      9.32077  eV     1   --> A              
     e( 12 - 12) =      9.49076  eV     1   --> A              
     e( 13 - 13) =     10.51984  eV     1   --> A              
     e( 14 - 14) =     11.25442  eV     1   --> A              
     e( 15 - 15) =     11.72977  eV     1   --> A              
     e( 16 - 16) =     12.29768  eV     1   --> A              
     e( 17 - 17) =     13.48298  eV     1   --> A              
     e( 18 - 18) =     13.82165  eV     1   --> A              
     e( 19 - 19) =     14.90296  eV     1   --> A              
     e( 20 - 20) =     15.56114  eV     1   --> A              

 **************************************************************************

 **************************************************************************

                    xk=(  -0.10000,  -0.28868,   0.24201  )

     Band symmetry, C_1 (1)     point group:

     e(  1 -  1) =     -4.67415  eV     1   --> A              
     e(  2 -  2) =     -4.07426  eV     1   --> A              
     e(  3 -  3) =      0.72519  eV     1   --> A              
     e(  4 -  4) =      1.63816  eV     1   --> A              
     e(  5 -  5) =      2.79070  eV     1   --> A              
     e(  6 -  6) =      3.70241  eV     1   --> A              
     e(  7 -  7) =      3.97786  eV     1   --> A              
     e(  8 -  8) =      4.22512  eV     1   --> A              
     e(  9 -  9) =      7.93794  eV     1   --> A              
     e( 10 - 10) =      8.70114  eV     1   --> A              
     e( 11 - 11) =      9.12302  eV     1   --> A              
     e( 12 - 12) =      9.85829  eV     1   --> A              
     e( 13 - 13) =     10.54369  eV     1   --> A              
     e( 14 - 14) =     10.95668  eV     1   --> A              
     e( 15 - 15) =     11.47396  eV     1   --> A              
     e( 16 - 16) =     12.57340  eV     1   --> A              
     e( 17 - 17) =     13.69871  eV     1   --> A              
     e( 18 - 18) =     13.88507  eV     1   --> A              
     e( 19 - 19) =     14.85203  eV     1   --> A              
     e( 20 - 20) =     16.14623  eV     1   --> A              

 **************************************************************************

 **************************************************************************

                    xk=(  -0.10000,  -0.28868,  -0.24201  )

     Band symmetry, C_1 (1)     point group:

     e(  1 -  1) =     -4.67415  eV     1   --> A              
     e(  2 -  2) =     -4.07426  eV     1   --> A              
     e(  3 -  3) =      0.72519  eV     1   --> A              
     e(  4 -  4) =      1.63816  eV     1   --> A              
     e(  5 -  5) =      2.79070  eV     1   --> A              
     e(  6 -  6) =      3.70241  eV     1   --> A              
     e(  7 -  7) =      3.97786  eV     1   --> A              
     e(  8 -  8) =      4.22512  eV     1   --> A              
     e(  9 -  9) =      7.93794  eV     1   --> A              
     e( 10 - 10) =      8.70114  eV     1   --> A              
     e( 11 - 11) =      9.12302  eV     1   --> A              
     e( 12 - 12) =      9.85829  eV     1   --> A              
     e( 13 - 13) =     10.54369  eV     1   --> A              
     e( 14 - 14) =     10.95668  eV     1   --> A              
     e( 15 - 15) =     11.47395  eV     1   --> A              
     e( 16 - 16) =     12.57340  eV     1   --> A              
     e( 17 - 17) =     13.69871  eV     1   --> A              
     e( 18 - 18) =     13.88507  eV     1   --> A              
     e( 19 - 19) =     14.85203  eV     1   --> A              
     e( 20 - 20) =     16.14623  eV     1   --> A              

 **************************************************************************

 **************************************************************************

                    xk=(  -0.10000,  -0.28868,  -0.12100  )

     Band symmetry, C_1 (1)     point group:

     e(  1 -  1) =     -5.05016  eV     1   --> A              
     e(  2 -  2) =     -3.33716  eV     1   --> A              
     e(  3 -  3) =     -0.25800  eV     1   --> A              
     e(  4 -  4) =      2.01245  eV     1   --> A              
     e(  5 -  5) =      2.46850  eV     1   --> A              
     e(  6 -  6) =      3.38189  eV     1   --> A              
     e(  7 -  7) =      4.68066  eV     1   --> A              
     e(  8 -  8) =      4.87982  eV     1   --> A              
     e(  9 -  9) =      7.65290  eV     1   --> A              
     e( 10 - 10) =      8.64334  eV     1   --> A              
     e( 11 - 11) =      9.32077  eV     1   --> A              
     e( 12 - 12) =      9.49077  eV     1   --> A              
     e( 13 - 13) =     10.51984  eV     1   --> A              
     e( 14 - 14) =     11.25442  eV     1   --> A              
     e( 15 - 15) =     11.72977  eV     1   --> A              
     e( 16 - 16) =     12.29768  eV     1   --> A              
     e( 17 - 17) =     13.48298  eV     1   --> A              
     e( 18 - 18) =     13.82165  eV     1   --> A              
     e( 19 - 19) =     14.90296  eV     1   --> A              
     e( 20 - 20) =     15.56114  eV     1   --> A              

 **************************************************************************

 **************************************************************************

                    xk=(  -0.10000,  -0.17321,   0.00000  )

     Band symmetry, C_1 (1)     point group:

     e(  1 -  1) =     -5.62861  eV     1   --> A              
     e(  2 -  2) =     -3.33528  eV     1   --> A              
     e(  3 -  3) =     -0.85900  eV     1   --> A              
     e(  4 -  4) =      2.80165  eV     1   --> A              
     e(  5 -  5) =      3.92324  eV     1   --> A              
     e(  6 -  6) =      4.30774  eV     1   --> A              
     e(  7 -  7) =      5.40413  eV     1   --> A              
     e(  8 -  8) =      5.54985  eV     1   --> A              
     e(  9 -  9) =      8.10734  eV     1   --> A              
     e( 10 - 10) =      8.29457  eV     1   --> A              
     e( 11 - 11) =      8.83469  eV     1   --> A              
     e( 12 - 12) =      9.59893  eV     1   --> A              
     e( 13 - 13) =     10.37357  eV     1   --> A              
     e( 14 - 14) =     10.38408  eV     1   --> A              
     e( 15 - 15) =     10.93205  eV     1   --> A              
     e( 16 - 16) =     11.63858  eV     1   --> A              
     e( 17 - 17) =     12.33468  eV     1   --> A              
     e( 18 - 18) =     13.86693  eV     1   --> A              
     e( 19 - 19) =     14.62509  eV     1   --> A              
     e( 20 - 20) =     15.55416  eV     1   --> A              

 **************************************************************************

 **************************************************************************

                    xk=(  -0.10000,  -0.17321,   0.12100  )

     Band symmetry, C_1 (1)     point group:

     e(  1 -  1) =     -5.50019  eV     1   --> A              
     e(  2 -  2) =     -3.78288  eV     1   --> A              
     e(  3 -  3) =     -0.19943  eV     1   --> A              
     e(  4 -  4) =      2.94531  eV     1   --> A              
     e(  5 -  5) =      3.70930  eV     1   --> A              
     e(  6 -  6) =      4.06681  eV     1   --> A              
     e(  7 -  7) =      5.11609  eV     1   --> A              
     e(  8 -  8) =      5.30768  eV     1   --> A              
     e(  9 -  9) =      8.03528  eV     1   --> A              
     e( 10 - 10) =      8.27535  eV     1   --> A              
     e( 11 - 11) =      9.26508  eV     1   --> A              
     e( 12 - 12) =      9.83719  eV     1   --> A              
     e( 13 - 13) =     10.03992  eV     1   --> A              
     e( 14 - 14) =     10.17491  eV     1   --> A              
     e( 15 - 15) =     11.77530  eV     1   --> A              
     e( 16 - 16) =     11.91850  eV     1   --> A              
     e( 17 - 17) =     12.20689  eV     1   --> A              
     e( 18 - 18) =     13.64656  eV     1   --> A              
     e( 19 - 19) =     14.97727  eV     1   --> A              
     e( 20 - 20) =     15.26726  eV     1   --> A              

 **************************************************************************

 **************************************************************************

                    xk=(  -0.10000,  -0.17321,   0.24201  )

     Band symmetry, C_1 (1)     point group:

     e(  1 -  1) =     -5.12110  eV     1   --> A              
     e(  2 -  2) =     -4.51739  eV     1   --> A              
     e(  3 -  3) =      1.13204  eV     1   --> A              
     e(  4 -  4) =      2.56062  eV     1   --> A              
     e(  5 -  5) =      3.38849  eV     1   --> A              
     e(  6 -  6) =      4.16943  eV     1   --> A              
     e(  7 -  7) =      4.35743  eV     1   --> A              
     e(  8 -  8) =      4.81562  eV     1   --> A              
     e(  9 -  9) =      8.53466  eV     1   --> A              
     e( 10 - 10) =      8.67191  eV     1   --> A              
     e( 11 - 11) =      9.16957  eV     1   --> A              
     e( 12 - 12) =      9.28442  eV     1   --> A              
     e( 13 - 13) =     10.42748  eV     1   --> A              
     e( 14 - 14) =     10.44351  eV     1   --> A              
     e( 15 - 15) =     11.53724  eV     1   --> A              
     e( 16 - 16) =     12.00327  eV     1   --> A              
     e( 17 - 17) =     13.17082  eV     1   --> A              
     e( 18 - 18) =     13.75794  eV     1   --> A              
     e( 19 - 19) =     14.54401  eV     1   --> A              
     e( 20 - 20) =     15.51394  eV     1   --> A              

 **************************************************************************

 **************************************************************************

                    xk=(  -0.10000,  -0.17321,  -0.24201  )

     Band symmetry, C_1 (1)     point group:

     e(  1 -  1) =     -5.12110  eV     1   --> A              
     e(  2 -  2) =     -4.51739  eV     1   --> A              
     e(  3 -  3) =      1.13204  eV     1   --> A              
     e(  4 -  4) =      2.56062  eV     1   --> A              
     e(  5 -  5) =      3.38849  eV     1   --> A              
     e(  6 -  6) =      4.16943  eV     1   --> A              
     e(  7 -  7) =      4.35743  eV     1   --> A              
     e(  8 -  8) =      4.81562  eV     1   --> A              
     e(  9 -  9) =      8.53466  eV     1   --> A              
     e( 10 - 10) =      8.67191  eV     1   --> A              
     e( 11 - 11) =      9.16957  eV     1   --> A              
     e( 12 - 12) =      9.28442  eV     1   --> A              
     e( 13 - 13) =     10.42748  eV     1   --> A              
     e( 14 - 14) =     10.44351  eV     1   --> A              
     e( 15 - 15) =     11.53724  eV     1   --> A              
     e( 16 - 16) =     12.00327  eV     1   --> A              
     e( 17 - 17) =     13.17082  eV     1   --> A              
     e( 18 - 18) =     13.75794  eV     1   --> A              
     e( 19 - 19) =     14.54401  eV     1   --> A              
     e( 20 - 20) =     15.51394  eV     1   --> A              

 **************************************************************************

 **************************************************************************

                    xk=(  -0.10000,  -0.17321,  -0.12100  )

     Band symmetry, C_1 (1)     point group:

     e(  1 -  1) =     -5.50019  eV     1   --> A              
     e(  2 -  2) =     -3.78288  eV     1   --> A              
     e(  3 -  3) =     -0.19943  eV     1   --> A              
     e(  4 -  4) =      2.94531  eV     1   --> A              
     e(  5 -  5) =      3.70930  eV     1   --> A              
     e(  6 -  6) =      4.06681  eV     1   --> A              
     e(  7 -  7) =      5.11609  eV     1   --> A              
     e(  8 -  8) =      5.30768  eV     1   --> A              
     e(  9 -  9) =      8.03528  eV     1   --> A              
     e( 10 - 10) =      8.27535  eV     1   --> A              
     e( 11 - 11) =      9.26508  eV     1   --> A              
     e( 12 - 12) =      9.83719  eV     1   --> A              
     e( 13 - 13) =     10.03992  eV     1   --> A              
     e( 14 - 14) =     10.17491  eV     1   --> A              
     e( 15 - 15) =     11.77530  eV     1   --> A              
     e( 16 - 16) =     11.91850  eV     1   --> A              
     e( 17 - 17) =     12.20689  eV     1   --> A              
     e( 18 - 18) =     13.64656  eV     1   --> A              
     e( 19 - 19) =     14.97727  eV     1   --> A              
     e( 20 - 20) =     15.26726  eV     1   --> A              

 **************************************************************************

     BANDS        :      7.13s CPU      7.87s WALL


   This run was terminated on:  15:11: 8   6Feb2026            

=------------------------------------------------------------------------------=
   JOB DONE.
=------------------------------------------------------------------------------=
