
     Program PHONON v.7.3.1 starts on  6Feb2026 at 15:11:51 

     This program is part of the open-source Quantum ESPRESSO suite
     for quantum simulation of materials; please cite
         "P. Giannozzi et al., J. Phys.:Condens. Matter 21 395502 (2009);
         "P. Giannozzi et al., J. Phys.:Condens. Matter 29 465901 (2017);
         "P. Giannozzi et al., J. Chem. Phys. 152 154105 (2020);
          URL http://www.quantum-espresso.org", 
     in publications or presentations arising from this work. More details at
     http://www.quantum-espresso.org/quote

     Parallel version (MPI), running on    48 processors

     MPI processes distributed on     1 nodes
     R & G space division:  proc/nbgrp/npool/nimage =      48
     249445 MiB available memory on the printing compute node when the environment starts

     Waiting for input...
     Reading input from standard input
      Title line not specified: using 'default'.

     Reading xml data from directory:

     temp/hexsi.save/

     IMPORTANT: XC functional enforced from input :
     Exchange-correlation= PZ
                           (   1   1   0   0   0   0   0)
     Any further DFT definition will be discarded
     Please, verify this is what you really want


     Parallelization info
     --------------------
     sticks:   dense  smooth     PW     G-vecs:    dense   smooth      PW
     Min          17      17      6                  701      701     135
     Max          18      18      8                  716      716     140
     Sum         859     859    295                34133    34133    6569

     Using Slab Decomposition

     Reading collected, re-writing distributed wavefunctions

     Number and degeneracy of irreps per q-point
       N         xq(1)         xq(2)         xq(3)   N irreps
       1   0.000000000   0.000000000   0.000000000      12
     No degeneracy

     Saving dvscf to file. Distribute only q points, not irreducible representations.

     Calculation of q =    0.0000000   0.0000000   0.0000000

     default                                                                    

     bravais-lattice index     =            0
     lattice parameter (alat)  =       7.2401  a.u.
     unit-cell volume          =     543.2592 (a.u.)^3
     number of atoms/cell      =            4
     number of atomic types    =            1
     kinetic-energy cut-off    =      65.0000  Ry
     charge density cut-off    =     240.0000  Ry
     convergence threshold     =      1.0E-12
     beta                      =       0.7000
     number of iterations used =            4
     Exchange-correlation= PZ
                           (   1   1   0   0   0   0   0)


     celldm(1)=    7.24014  celldm(2)=    0.00000  celldm(3)=    0.00000
     celldm(4)=    0.00000  celldm(5)=    0.00000  celldm(6)=    0.00000

     crystal axes: (cart. coord. in units of alat)
               a(1) = (  1.0000  0.0000  0.0000 )  
               a(2) = ( -0.5000  0.8660  0.0000 )  
               a(3) = (  0.0000  0.0000  1.6529 )  

     reciprocal axes: (cart. coord. in units 2 pi/alat)
               b(1) = (  1.0000  0.5774 -0.0000 )  
               b(2) = (  0.0000  1.1547  0.0000 )  
               b(3) = (  0.0000 -0.0000  0.6050 )  


     Atoms inside the unit cell: 

     Cartesian axes

     site n.  atom      mass           positions (alat units)
        1  Si     28.0855   tau(    1) = (   -0.00000    0.57735    0.10415  )
        2  Si     28.0855   tau(    2) = (    0.50000    0.28868    0.93057  )
        3  Si     28.0855   tau(    3) = (   -0.00000    0.57735    0.72228  )
        4  Si     28.0855   tau(    4) = (    0.50000    0.28868    1.54871  )

     Computing dynamical matrix for 
                    q = (   0.0000000   0.0000000   0.0000000 )

     No symmetry!
                                    s                        frac. trans.

      isym =  1     identity                                     

 cryst.   s( 1) = (     1          0          0      )
                  (     0          1          0      )
                  (     0          0          1      )

 cart.    s( 1) = (  1.0000000  0.0000000  0.0000000 )
                  (  0.0000000  1.0000000  0.0000000 )
                  (  0.0000000  0.0000000  1.0000000 )


     G cutoff =  318.6732  (    705 G-vectors)     FFT grid: ( 36, 36, 60)

     number of k points=   500  Marzari-Vanderbilt smearing, width (Ry)=  0.0147
                       cart. coord. in units 2pi/alat
        k(    1) = (   0.0000000   0.0000000   0.0000000), wk =   0.0040000
        k(    2) = (   0.0000000   0.0000000   0.1210026), wk =   0.0040000
        k(    3) = (   0.0000000   0.0000000   0.2420051), wk =   0.0040000
        k(    4) = (   0.0000000   0.0000000  -0.2420051), wk =   0.0040000
        k(    5) = (   0.0000000   0.0000000  -0.1210026), wk =   0.0040000
        k(    6) = (   0.0000000   0.1154701   0.0000000), wk =   0.0040000
        k(    7) = (   0.0000000   0.1154701   0.1210026), wk =   0.0040000
        k(    8) = (   0.0000000   0.1154701   0.2420051), wk =   0.0040000
        k(    9) = (   0.0000000   0.1154701  -0.2420051), wk =   0.0040000
        k(   10) = (   0.0000000   0.1154701  -0.1210026), wk =   0.0040000
        k(   11) = (   0.0000000   0.2309401   0.0000000), wk =   0.0040000
        k(   12) = (   0.0000000   0.2309401   0.1210026), wk =   0.0040000
        k(   13) = (   0.0000000   0.2309401   0.2420051), wk =   0.0040000
        k(   14) = (   0.0000000   0.2309401  -0.2420051), wk =   0.0040000
        k(   15) = (   0.0000000   0.2309401  -0.1210026), wk =   0.0040000
        k(   16) = (   0.0000000   0.3464102   0.0000000), wk =   0.0040000
        k(   17) = (   0.0000000   0.3464102   0.1210026), wk =   0.0040000
        k(   18) = (   0.0000000   0.3464102   0.2420051), wk =   0.0040000
        k(   19) = (   0.0000000   0.3464102  -0.2420051), wk =   0.0040000
        k(   20) = (   0.0000000   0.3464102  -0.1210026), wk =   0.0040000
        k(   21) = (   0.0000000   0.4618802   0.0000000), wk =   0.0040000
        k(   22) = (   0.0000000   0.4618802   0.1210026), wk =   0.0040000
        k(   23) = (   0.0000000   0.4618802   0.2420051), wk =   0.0040000
        k(   24) = (   0.0000000   0.4618802  -0.2420051), wk =   0.0040000
        k(   25) = (   0.0000000   0.4618802  -0.1210026), wk =   0.0040000
        k(   26) = (   0.0000000  -0.5773503   0.0000000), wk =   0.0040000
        k(   27) = (   0.0000000  -0.5773503   0.1210026), wk =   0.0040000
        k(   28) = (   0.0000000  -0.5773503   0.2420051), wk =   0.0040000
        k(   29) = (   0.0000000  -0.5773503  -0.2420051), wk =   0.0040000
        k(   30) = (   0.0000000  -0.5773503  -0.1210026), wk =   0.0040000
        k(   31) = (   0.0000000  -0.4618802   0.0000000), wk =   0.0040000
        k(   32) = (   0.0000000  -0.4618802   0.1210026), wk =   0.0040000
        k(   33) = (   0.0000000  -0.4618802   0.2420051), wk =   0.0040000
        k(   34) = (   0.0000000  -0.4618802  -0.2420051), wk =   0.0040000
        k(   35) = (   0.0000000  -0.4618802  -0.1210026), wk =   0.0040000
        k(   36) = (   0.0000000  -0.3464102   0.0000000), wk =   0.0040000
        k(   37) = (   0.0000000  -0.3464102   0.1210026), wk =   0.0040000
        k(   38) = (   0.0000000  -0.3464102   0.2420051), wk =   0.0040000
        k(   39) = (   0.0000000  -0.3464102  -0.2420051), wk =   0.0040000
        k(   40) = (   0.0000000  -0.3464102  -0.1210026), wk =   0.0040000
        k(   41) = (   0.0000000  -0.2309401   0.0000000), wk =   0.0040000
        k(   42) = (   0.0000000  -0.2309401   0.1210026), wk =   0.0040000
        k(   43) = (   0.0000000  -0.2309401   0.2420051), wk =   0.0040000
        k(   44) = (   0.0000000  -0.2309401  -0.2420051), wk =   0.0040000
        k(   45) = (   0.0000000  -0.2309401  -0.1210026), wk =   0.0040000
        k(   46) = (   0.0000000  -0.1154701   0.0000000), wk =   0.0040000
        k(   47) = (   0.0000000  -0.1154701   0.1210026), wk =   0.0040000
        k(   48) = (   0.0000000  -0.1154701   0.2420051), wk =   0.0040000
        k(   49) = (   0.0000000  -0.1154701  -0.2420051), wk =   0.0040000
        k(   50) = (   0.0000000  -0.1154701  -0.1210026), wk =   0.0040000
        k(   51) = (   0.1000000   0.0577350   0.0000000), wk =   0.0040000
        k(   52) = (   0.1000000   0.0577350   0.1210026), wk =   0.0040000
        k(   53) = (   0.1000000   0.0577350   0.2420051), wk =   0.0040000
        k(   54) = (   0.1000000   0.0577350  -0.2420051), wk =   0.0040000
        k(   55) = (   0.1000000   0.0577350  -0.1210026), wk =   0.0040000
        k(   56) = (   0.1000000   0.1732051   0.0000000), wk =   0.0040000
        k(   57) = (   0.1000000   0.1732051   0.1210026), wk =   0.0040000
        k(   58) = (   0.1000000   0.1732051   0.2420051), wk =   0.0040000
        k(   59) = (   0.1000000   0.1732051  -0.2420051), wk =   0.0040000
        k(   60) = (   0.1000000   0.1732051  -0.1210026), wk =   0.0040000
        k(   61) = (   0.1000000   0.2886751   0.0000000), wk =   0.0040000
        k(   62) = (   0.1000000   0.2886751   0.1210026), wk =   0.0040000
        k(   63) = (   0.1000000   0.2886751   0.2420051), wk =   0.0040000
        k(   64) = (   0.1000000   0.2886751  -0.2420051), wk =   0.0040000
        k(   65) = (   0.1000000   0.2886751  -0.1210026), wk =   0.0040000
        k(   66) = (   0.1000000   0.4041452   0.0000000), wk =   0.0040000
        k(   67) = (   0.1000000   0.4041452   0.1210026), wk =   0.0040000
        k(   68) = (   0.1000000   0.4041452   0.2420051), wk =   0.0040000
        k(   69) = (   0.1000000   0.4041452  -0.2420051), wk =   0.0040000
        k(   70) = (   0.1000000   0.4041452  -0.1210026), wk =   0.0040000
        k(   71) = (   0.1000000   0.5196152   0.0000000), wk =   0.0040000
        k(   72) = (   0.1000000   0.5196152   0.1210026), wk =   0.0040000
        k(   73) = (   0.1000000   0.5196152   0.2420051), wk =   0.0040000
        k(   74) = (   0.1000000   0.5196152  -0.2420051), wk =   0.0040000
        k(   75) = (   0.1000000   0.5196152  -0.1210026), wk =   0.0040000
        k(   76) = (   0.1000000  -0.5196152   0.0000000), wk =   0.0040000
        k(   77) = (   0.1000000  -0.5196152   0.1210026), wk =   0.0040000
        k(   78) = (   0.1000000  -0.5196152   0.2420051), wk =   0.0040000
        k(   79) = (   0.1000000  -0.5196152  -0.2420051), wk =   0.0040000
        k(   80) = (   0.1000000  -0.5196152  -0.1210026), wk =   0.0040000
        k(   81) = (   0.1000000  -0.4041452   0.0000000), wk =   0.0040000
        k(   82) = (   0.1000000  -0.4041452   0.1210026), wk =   0.0040000
        k(   83) = (   0.1000000  -0.4041452   0.2420051), wk =   0.0040000
        k(   84) = (   0.1000000  -0.4041452  -0.2420051), wk =   0.0040000
        k(   85) = (   0.1000000  -0.4041452  -0.1210026), wk =   0.0040000
        k(   86) = (   0.1000000  -0.2886751   0.0000000), wk =   0.0040000
        k(   87) = (   0.1000000  -0.2886751   0.1210026), wk =   0.0040000
        k(   88) = (   0.1000000  -0.2886751   0.2420051), wk =   0.0040000
        k(   89) = (   0.1000000  -0.2886751  -0.2420051), wk =   0.0040000
        k(   90) = (   0.1000000  -0.2886751  -0.1210026), wk =   0.0040000
        k(   91) = (   0.1000000  -0.1732051   0.0000000), wk =   0.0040000
        k(   92) = (   0.1000000  -0.1732051   0.1210026), wk =   0.0040000
        k(   93) = (   0.1000000  -0.1732051   0.2420051), wk =   0.0040000
        k(   94) = (   0.1000000  -0.1732051  -0.2420051), wk =   0.0040000
        k(   95) = (   0.1000000  -0.1732051  -0.1210026), wk =   0.0040000
        k(   96) = (   0.1000000  -0.0577350   0.0000000), wk =   0.0040000
        k(   97) = (   0.1000000  -0.0577350   0.1210026), wk =   0.0040000
        k(   98) = (   0.1000000  -0.0577350   0.2420051), wk =   0.0040000
        k(   99) = (   0.1000000  -0.0577350  -0.2420051), wk =   0.0040000
        k(  100) = (   0.1000000  -0.0577350  -0.1210026), wk =   0.0040000
        k(  101) = (   0.2000000   0.1154701   0.0000000), wk =   0.0040000
        k(  102) = (   0.2000000   0.1154701   0.1210026), wk =   0.0040000
        k(  103) = (   0.2000000   0.1154701   0.2420051), wk =   0.0040000
        k(  104) = (   0.2000000   0.1154701  -0.2420051), wk =   0.0040000
        k(  105) = (   0.2000000   0.1154701  -0.1210026), wk =   0.0040000
        k(  106) = (   0.2000000   0.2309401   0.0000000), wk =   0.0040000
        k(  107) = (   0.2000000   0.2309401   0.1210026), wk =   0.0040000
        k(  108) = (   0.2000000   0.2309401   0.2420051), wk =   0.0040000
        k(  109) = (   0.2000000   0.2309401  -0.2420051), wk =   0.0040000
        k(  110) = (   0.2000000   0.2309401  -0.1210026), wk =   0.0040000
        k(  111) = (   0.2000000   0.3464102   0.0000000), wk =   0.0040000
        k(  112) = (   0.2000000   0.3464102   0.1210026), wk =   0.0040000
        k(  113) = (   0.2000000   0.3464102   0.2420051), wk =   0.0040000
        k(  114) = (   0.2000000   0.3464102  -0.2420051), wk =   0.0040000
        k(  115) = (   0.2000000   0.3464102  -0.1210026), wk =   0.0040000
        k(  116) = (   0.2000000   0.4618802   0.0000000), wk =   0.0040000
        k(  117) = (   0.2000000   0.4618802   0.1210026), wk =   0.0040000
        k(  118) = (   0.2000000   0.4618802   0.2420051), wk =   0.0040000
        k(  119) = (   0.2000000   0.4618802  -0.2420051), wk =   0.0040000
        k(  120) = (   0.2000000   0.4618802  -0.1210026), wk =   0.0040000
        k(  121) = (   0.2000000   0.5773503   0.0000000), wk =   0.0040000
        k(  122) = (   0.2000000   0.5773503   0.1210026), wk =   0.0040000
        k(  123) = (   0.2000000   0.5773503   0.2420051), wk =   0.0040000
        k(  124) = (   0.2000000   0.5773503  -0.2420051), wk =   0.0040000
        k(  125) = (   0.2000000   0.5773503  -0.1210026), wk =   0.0040000
        k(  126) = (   0.2000000  -0.4618802   0.0000000), wk =   0.0040000
        k(  127) = (   0.2000000  -0.4618802   0.1210026), wk =   0.0040000
        k(  128) = (   0.2000000  -0.4618802   0.2420051), wk =   0.0040000
        k(  129) = (   0.2000000  -0.4618802  -0.2420051), wk =   0.0040000
        k(  130) = (   0.2000000  -0.4618802  -0.1210026), wk =   0.0040000
        k(  131) = (   0.2000000  -0.3464102   0.0000000), wk =   0.0040000
        k(  132) = (   0.2000000  -0.3464102   0.1210026), wk =   0.0040000
        k(  133) = (   0.2000000  -0.3464102   0.2420051), wk =   0.0040000
        k(  134) = (   0.2000000  -0.3464102  -0.2420051), wk =   0.0040000
        k(  135) = (   0.2000000  -0.3464102  -0.1210026), wk =   0.0040000
        k(  136) = (   0.2000000  -0.2309401   0.0000000), wk =   0.0040000
        k(  137) = (   0.2000000  -0.2309401   0.1210026), wk =   0.0040000
        k(  138) = (   0.2000000  -0.2309401   0.2420051), wk =   0.0040000
        k(  139) = (   0.2000000  -0.2309401  -0.2420051), wk =   0.0040000
        k(  140) = (   0.2000000  -0.2309401  -0.1210026), wk =   0.0040000
        k(  141) = (   0.2000000  -0.1154701   0.0000000), wk =   0.0040000
        k(  142) = (   0.2000000  -0.1154701   0.1210026), wk =   0.0040000
        k(  143) = (   0.2000000  -0.1154701   0.2420051), wk =   0.0040000
        k(  144) = (   0.2000000  -0.1154701  -0.2420051), wk =   0.0040000
        k(  145) = (   0.2000000  -0.1154701  -0.1210026), wk =   0.0040000
        k(  146) = (   0.2000000   0.0000000   0.0000000), wk =   0.0040000
        k(  147) = (   0.2000000   0.0000000   0.1210026), wk =   0.0040000
        k(  148) = (   0.2000000   0.0000000   0.2420051), wk =   0.0040000
        k(  149) = (   0.2000000   0.0000000  -0.2420051), wk =   0.0040000
        k(  150) = (   0.2000000   0.0000000  -0.1210026), wk =   0.0040000
        k(  151) = (   0.3000000   0.1732051   0.0000000), wk =   0.0040000
        k(  152) = (   0.3000000   0.1732051   0.1210026), wk =   0.0040000
        k(  153) = (   0.3000000   0.1732051   0.2420051), wk =   0.0040000
        k(  154) = (   0.3000000   0.1732051  -0.2420051), wk =   0.0040000
        k(  155) = (   0.3000000   0.1732051  -0.1210026), wk =   0.0040000
        k(  156) = (   0.3000000   0.2886751   0.0000000), wk =   0.0040000
        k(  157) = (   0.3000000   0.2886751   0.1210026), wk =   0.0040000
        k(  158) = (   0.3000000   0.2886751   0.2420051), wk =   0.0040000
        k(  159) = (   0.3000000   0.2886751  -0.2420051), wk =   0.0040000
        k(  160) = (   0.3000000   0.2886751  -0.1210026), wk =   0.0040000
        k(  161) = (   0.3000000   0.4041452   0.0000000), wk =   0.0040000
        k(  162) = (   0.3000000   0.4041452   0.1210026), wk =   0.0040000
        k(  163) = (   0.3000000   0.4041452   0.2420051), wk =   0.0040000
        k(  164) = (   0.3000000   0.4041452  -0.2420051), wk =   0.0040000
        k(  165) = (   0.3000000   0.4041452  -0.1210026), wk =   0.0040000
        k(  166) = (   0.3000000   0.5196152   0.0000000), wk =   0.0040000
        k(  167) = (   0.3000000   0.5196152   0.1210026), wk =   0.0040000
        k(  168) = (   0.3000000   0.5196152   0.2420051), wk =   0.0040000
        k(  169) = (   0.3000000   0.5196152  -0.2420051), wk =   0.0040000
        k(  170) = (   0.3000000   0.5196152  -0.1210026), wk =   0.0040000
        k(  171) = (   0.3000000   0.6350853   0.0000000), wk =   0.0040000
        k(  172) = (   0.3000000   0.6350853   0.1210026), wk =   0.0040000
        k(  173) = (   0.3000000   0.6350853   0.2420051), wk =   0.0040000
        k(  174) = (   0.3000000   0.6350853  -0.2420051), wk =   0.0040000
        k(  175) = (   0.3000000   0.6350853  -0.1210026), wk =   0.0040000
        k(  176) = (   0.3000000  -0.4041452   0.0000000), wk =   0.0040000
        k(  177) = (   0.3000000  -0.4041452   0.1210026), wk =   0.0040000
        k(  178) = (   0.3000000  -0.4041452   0.2420051), wk =   0.0040000
        k(  179) = (   0.3000000  -0.4041452  -0.2420051), wk =   0.0040000
        k(  180) = (   0.3000000  -0.4041452  -0.1210026), wk =   0.0040000
        k(  181) = (   0.3000000  -0.2886751   0.0000000), wk =   0.0040000
        k(  182) = (   0.3000000  -0.2886751   0.1210026), wk =   0.0040000
        k(  183) = (   0.3000000  -0.2886751   0.2420051), wk =   0.0040000
        k(  184) = (   0.3000000  -0.2886751  -0.2420051), wk =   0.0040000
        k(  185) = (   0.3000000  -0.2886751  -0.1210026), wk =   0.0040000
        k(  186) = (   0.3000000  -0.1732051   0.0000000), wk =   0.0040000
        k(  187) = (   0.3000000  -0.1732051   0.1210026), wk =   0.0040000
        k(  188) = (   0.3000000  -0.1732051   0.2420051), wk =   0.0040000
        k(  189) = (   0.3000000  -0.1732051  -0.2420051), wk =   0.0040000
        k(  190) = (   0.3000000  -0.1732051  -0.1210026), wk =   0.0040000
        k(  191) = (   0.3000000  -0.0577350   0.0000000), wk =   0.0040000
        k(  192) = (   0.3000000  -0.0577350   0.1210026), wk =   0.0040000
        k(  193) = (   0.3000000  -0.0577350   0.2420051), wk =   0.0040000
        k(  194) = (   0.3000000  -0.0577350  -0.2420051), wk =   0.0040000
        k(  195) = (   0.3000000  -0.0577350  -0.1210026), wk =   0.0040000
        k(  196) = (   0.3000000   0.0577350   0.0000000), wk =   0.0040000
        k(  197) = (   0.3000000   0.0577350   0.1210026), wk =   0.0040000
        k(  198) = (   0.3000000   0.0577350   0.2420051), wk =   0.0040000
        k(  199) = (   0.3000000   0.0577350  -0.2420051), wk =   0.0040000
        k(  200) = (   0.3000000   0.0577350  -0.1210026), wk =   0.0040000
        k(  201) = (   0.4000000   0.2309401   0.0000000), wk =   0.0040000
        k(  202) = (   0.4000000   0.2309401   0.1210026), wk =   0.0040000
        k(  203) = (   0.4000000   0.2309401   0.2420051), wk =   0.0040000
        k(  204) = (   0.4000000   0.2309401  -0.2420051), wk =   0.0040000
        k(  205) = (   0.4000000   0.2309401  -0.1210026), wk =   0.0040000
        k(  206) = (   0.4000000   0.3464102   0.0000000), wk =   0.0040000
        k(  207) = (   0.4000000   0.3464102   0.1210026), wk =   0.0040000
        k(  208) = (   0.4000000   0.3464102   0.2420051), wk =   0.0040000
        k(  209) = (   0.4000000   0.3464102  -0.2420051), wk =   0.0040000
        k(  210) = (   0.4000000   0.3464102  -0.1210026), wk =   0.0040000
        k(  211) = (   0.4000000   0.4618802   0.0000000), wk =   0.0040000
        k(  212) = (   0.4000000   0.4618802   0.1210026), wk =   0.0040000
        k(  213) = (   0.4000000   0.4618802   0.2420051), wk =   0.0040000
        k(  214) = (   0.4000000   0.4618802  -0.2420051), wk =   0.0040000
        k(  215) = (   0.4000000   0.4618802  -0.1210026), wk =   0.0040000
        k(  216) = (   0.4000000   0.5773503   0.0000000), wk =   0.0040000
        k(  217) = (   0.4000000   0.5773503   0.1210026), wk =   0.0040000
        k(  218) = (   0.4000000   0.5773503   0.2420051), wk =   0.0040000
        k(  219) = (   0.4000000   0.5773503  -0.2420051), wk =   0.0040000
        k(  220) = (   0.4000000   0.5773503  -0.1210026), wk =   0.0040000
        k(  221) = (   0.4000000   0.6928203   0.0000000), wk =   0.0040000
        k(  222) = (   0.4000000   0.6928203   0.1210026), wk =   0.0040000
        k(  223) = (   0.4000000   0.6928203   0.2420051), wk =   0.0040000
        k(  224) = (   0.4000000   0.6928203  -0.2420051), wk =   0.0040000
        k(  225) = (   0.4000000   0.6928203  -0.1210026), wk =   0.0040000
        k(  226) = (   0.4000000  -0.3464102   0.0000000), wk =   0.0040000
        k(  227) = (   0.4000000  -0.3464102   0.1210026), wk =   0.0040000
        k(  228) = (   0.4000000  -0.3464102   0.2420051), wk =   0.0040000
        k(  229) = (   0.4000000  -0.3464102  -0.2420051), wk =   0.0040000
        k(  230) = (   0.4000000  -0.3464102  -0.1210026), wk =   0.0040000
        k(  231) = (   0.4000000  -0.2309401   0.0000000), wk =   0.0040000
        k(  232) = (   0.4000000  -0.2309401   0.1210026), wk =   0.0040000
        k(  233) = (   0.4000000  -0.2309401   0.2420051), wk =   0.0040000
        k(  234) = (   0.4000000  -0.2309401  -0.2420051), wk =   0.0040000
        k(  235) = (   0.4000000  -0.2309401  -0.1210026), wk =   0.0040000
        k(  236) = (   0.4000000  -0.1154701   0.0000000), wk =   0.0040000
        k(  237) = (   0.4000000  -0.1154701   0.1210026), wk =   0.0040000
        k(  238) = (   0.4000000  -0.1154701   0.2420051), wk =   0.0040000
        k(  239) = (   0.4000000  -0.1154701  -0.2420051), wk =   0.0040000
        k(  240) = (   0.4000000  -0.1154701  -0.1210026), wk =   0.0040000
        k(  241) = (   0.4000000   0.0000000   0.0000000), wk =   0.0040000
        k(  242) = (   0.4000000   0.0000000   0.1210026), wk =   0.0040000
        k(  243) = (   0.4000000   0.0000000   0.2420051), wk =   0.0040000
        k(  244) = (   0.4000000   0.0000000  -0.2420051), wk =   0.0040000
        k(  245) = (   0.4000000   0.0000000  -0.1210026), wk =   0.0040000
        k(  246) = (   0.4000000   0.1154701   0.0000000), wk =   0.0040000
        k(  247) = (   0.4000000   0.1154701   0.1210026), wk =   0.0040000
        k(  248) = (   0.4000000   0.1154701   0.2420051), wk =   0.0040000
        k(  249) = (   0.4000000   0.1154701  -0.2420051), wk =   0.0040000
        k(  250) = (   0.4000000   0.1154701  -0.1210026), wk =   0.0040000
        k(  251) = (  -0.5000000  -0.2886751   0.0000000), wk =   0.0040000
        k(  252) = (  -0.5000000  -0.2886751   0.1210026), wk =   0.0040000
        k(  253) = (  -0.5000000  -0.2886751   0.2420051), wk =   0.0040000
        k(  254) = (  -0.5000000  -0.2886751  -0.2420051), wk =   0.0040000
        k(  255) = (  -0.5000000  -0.2886751  -0.1210026), wk =   0.0040000
        k(  256) = (  -0.5000000  -0.1732051   0.0000000), wk =   0.0040000
        k(  257) = (  -0.5000000  -0.1732051   0.1210026), wk =   0.0040000
        k(  258) = (  -0.5000000  -0.1732051   0.2420051), wk =   0.0040000
        k(  259) = (  -0.5000000  -0.1732051  -0.2420051), wk =   0.0040000
        k(  260) = (  -0.5000000  -0.1732051  -0.1210026), wk =   0.0040000
        k(  261) = (  -0.5000000  -0.0577350   0.0000000), wk =   0.0040000
        k(  262) = (  -0.5000000  -0.0577350   0.1210026), wk =   0.0040000
        k(  263) = (  -0.5000000  -0.0577350   0.2420051), wk =   0.0040000
        k(  264) = (  -0.5000000  -0.0577350  -0.2420051), wk =   0.0040000
        k(  265) = (  -0.5000000  -0.0577350  -0.1210026), wk =   0.0040000
        k(  266) = (  -0.5000000   0.0577350   0.0000000), wk =   0.0040000
        k(  267) = (  -0.5000000   0.0577350   0.1210026), wk =   0.0040000
        k(  268) = (  -0.5000000   0.0577350   0.2420051), wk =   0.0040000
        k(  269) = (  -0.5000000   0.0577350  -0.2420051), wk =   0.0040000
        k(  270) = (  -0.5000000   0.0577350  -0.1210026), wk =   0.0040000
        k(  271) = (  -0.5000000   0.1732051   0.0000000), wk =   0.0040000
        k(  272) = (  -0.5000000   0.1732051   0.1210026), wk =   0.0040000
        k(  273) = (  -0.5000000   0.1732051   0.2420051), wk =   0.0040000
        k(  274) = (  -0.5000000   0.1732051  -0.2420051), wk =   0.0040000
        k(  275) = (  -0.5000000   0.1732051  -0.1210026), wk =   0.0040000
        k(  276) = (  -0.5000000  -0.8660254   0.0000000), wk =   0.0040000
        k(  277) = (  -0.5000000  -0.8660254   0.1210026), wk =   0.0040000
        k(  278) = (  -0.5000000  -0.8660254   0.2420051), wk =   0.0040000
        k(  279) = (  -0.5000000  -0.8660254  -0.2420051), wk =   0.0040000
        k(  280) = (  -0.5000000  -0.8660254  -0.1210026), wk =   0.0040000
        k(  281) = (  -0.5000000  -0.7505553   0.0000000), wk =   0.0040000
        k(  282) = (  -0.5000000  -0.7505553   0.1210026), wk =   0.0040000
        k(  283) = (  -0.5000000  -0.7505553   0.2420051), wk =   0.0040000
        k(  284) = (  -0.5000000  -0.7505553  -0.2420051), wk =   0.0040000
        k(  285) = (  -0.5000000  -0.7505553  -0.1210026), wk =   0.0040000
        k(  286) = (  -0.5000000  -0.6350853   0.0000000), wk =   0.0040000
        k(  287) = (  -0.5000000  -0.6350853   0.1210026), wk =   0.0040000
        k(  288) = (  -0.5000000  -0.6350853   0.2420051), wk =   0.0040000
        k(  289) = (  -0.5000000  -0.6350853  -0.2420051), wk =   0.0040000
        k(  290) = (  -0.5000000  -0.6350853  -0.1210026), wk =   0.0040000
        k(  291) = (  -0.5000000  -0.5196152   0.0000000), wk =   0.0040000
        k(  292) = (  -0.5000000  -0.5196152   0.1210026), wk =   0.0040000
        k(  293) = (  -0.5000000  -0.5196152   0.2420051), wk =   0.0040000
        k(  294) = (  -0.5000000  -0.5196152  -0.2420051), wk =   0.0040000
        k(  295) = (  -0.5000000  -0.5196152  -0.1210026), wk =   0.0040000
        k(  296) = (  -0.5000000  -0.4041452   0.0000000), wk =   0.0040000
        k(  297) = (  -0.5000000  -0.4041452   0.1210026), wk =   0.0040000
        k(  298) = (  -0.5000000  -0.4041452   0.2420051), wk =   0.0040000
        k(  299) = (  -0.5000000  -0.4041452  -0.2420051), wk =   0.0040000
        k(  300) = (  -0.5000000  -0.4041452  -0.1210026), wk =   0.0040000
        k(  301) = (  -0.4000000  -0.2309401   0.0000000), wk =   0.0040000
        k(  302) = (  -0.4000000  -0.2309401   0.1210026), wk =   0.0040000
        k(  303) = (  -0.4000000  -0.2309401   0.2420051), wk =   0.0040000
        k(  304) = (  -0.4000000  -0.2309401  -0.2420051), wk =   0.0040000
        k(  305) = (  -0.4000000  -0.2309401  -0.1210026), wk =   0.0040000
        k(  306) = (  -0.4000000  -0.1154701   0.0000000), wk =   0.0040000
        k(  307) = (  -0.4000000  -0.1154701   0.1210026), wk =   0.0040000
        k(  308) = (  -0.4000000  -0.1154701   0.2420051), wk =   0.0040000
        k(  309) = (  -0.4000000  -0.1154701  -0.2420051), wk =   0.0040000
        k(  310) = (  -0.4000000  -0.1154701  -0.1210026), wk =   0.0040000
        k(  311) = (  -0.4000000   0.0000000   0.0000000), wk =   0.0040000
        k(  312) = (  -0.4000000   0.0000000   0.1210026), wk =   0.0040000
        k(  313) = (  -0.4000000   0.0000000   0.2420051), wk =   0.0040000
        k(  314) = (  -0.4000000   0.0000000  -0.2420051), wk =   0.0040000
        k(  315) = (  -0.4000000   0.0000000  -0.1210026), wk =   0.0040000
        k(  316) = (  -0.4000000   0.1154701   0.0000000), wk =   0.0040000
        k(  317) = (  -0.4000000   0.1154701   0.1210026), wk =   0.0040000
        k(  318) = (  -0.4000000   0.1154701   0.2420051), wk =   0.0040000
        k(  319) = (  -0.4000000   0.1154701  -0.2420051), wk =   0.0040000
        k(  320) = (  -0.4000000   0.1154701  -0.1210026), wk =   0.0040000
        k(  321) = (  -0.4000000   0.2309401   0.0000000), wk =   0.0040000
        k(  322) = (  -0.4000000   0.2309401   0.1210026), wk =   0.0040000
        k(  323) = (  -0.4000000   0.2309401   0.2420051), wk =   0.0040000
        k(  324) = (  -0.4000000   0.2309401  -0.2420051), wk =   0.0040000
        k(  325) = (  -0.4000000   0.2309401  -0.1210026), wk =   0.0040000
        k(  326) = (  -0.4000000  -0.8082904   0.0000000), wk =   0.0040000
        k(  327) = (  -0.4000000  -0.8082904   0.1210026), wk =   0.0040000
        k(  328) = (  -0.4000000  -0.8082904   0.2420051), wk =   0.0040000
        k(  329) = (  -0.4000000  -0.8082904  -0.2420051), wk =   0.0040000
        k(  330) = (  -0.4000000  -0.8082904  -0.1210026), wk =   0.0040000
        k(  331) = (  -0.4000000  -0.6928203   0.0000000), wk =   0.0040000
        k(  332) = (  -0.4000000  -0.6928203   0.1210026), wk =   0.0040000
        k(  333) = (  -0.4000000  -0.6928203   0.2420051), wk =   0.0040000
        k(  334) = (  -0.4000000  -0.6928203  -0.2420051), wk =   0.0040000
        k(  335) = (  -0.4000000  -0.6928203  -0.1210026), wk =   0.0040000
        k(  336) = (  -0.4000000  -0.5773503   0.0000000), wk =   0.0040000
        k(  337) = (  -0.4000000  -0.5773503   0.1210026), wk =   0.0040000
        k(  338) = (  -0.4000000  -0.5773503   0.2420051), wk =   0.0040000
        k(  339) = (  -0.4000000  -0.5773503  -0.2420051), wk =   0.0040000
        k(  340) = (  -0.4000000  -0.5773503  -0.1210026), wk =   0.0040000
        k(  341) = (  -0.4000000  -0.4618802   0.0000000), wk =   0.0040000
        k(  342) = (  -0.4000000  -0.4618802   0.1210026), wk =   0.0040000
        k(  343) = (  -0.4000000  -0.4618802   0.2420051), wk =   0.0040000
        k(  344) = (  -0.4000000  -0.4618802  -0.2420051), wk =   0.0040000
        k(  345) = (  -0.4000000  -0.4618802  -0.1210026), wk =   0.0040000
        k(  346) = (  -0.4000000  -0.3464102   0.0000000), wk =   0.0040000
        k(  347) = (  -0.4000000  -0.3464102   0.1210026), wk =   0.0040000
        k(  348) = (  -0.4000000  -0.3464102   0.2420051), wk =   0.0040000
        k(  349) = (  -0.4000000  -0.3464102  -0.2420051), wk =   0.0040000
        k(  350) = (  -0.4000000  -0.3464102  -0.1210026), wk =   0.0040000
        k(  351) = (  -0.3000000  -0.1732051   0.0000000), wk =   0.0040000
        k(  352) = (  -0.3000000  -0.1732051   0.1210026), wk =   0.0040000
        k(  353) = (  -0.3000000  -0.1732051   0.2420051), wk =   0.0040000
        k(  354) = (  -0.3000000  -0.1732051  -0.2420051), wk =   0.0040000
        k(  355) = (  -0.3000000  -0.1732051  -0.1210026), wk =   0.0040000
        k(  356) = (  -0.3000000  -0.0577350   0.0000000), wk =   0.0040000
        k(  357) = (  -0.3000000  -0.0577350   0.1210026), wk =   0.0040000
        k(  358) = (  -0.3000000  -0.0577350   0.2420051), wk =   0.0040000
        k(  359) = (  -0.3000000  -0.0577350  -0.2420051), wk =   0.0040000
        k(  360) = (  -0.3000000  -0.0577350  -0.1210026), wk =   0.0040000
        k(  361) = (  -0.3000000   0.0577350   0.0000000), wk =   0.0040000
        k(  362) = (  -0.3000000   0.0577350   0.1210026), wk =   0.0040000
        k(  363) = (  -0.3000000   0.0577350   0.2420051), wk =   0.0040000
        k(  364) = (  -0.3000000   0.0577350  -0.2420051), wk =   0.0040000
        k(  365) = (  -0.3000000   0.0577350  -0.1210026), wk =   0.0040000
        k(  366) = (  -0.3000000   0.1732051   0.0000000), wk =   0.0040000
        k(  367) = (  -0.3000000   0.1732051   0.1210026), wk =   0.0040000
        k(  368) = (  -0.3000000   0.1732051   0.2420051), wk =   0.0040000
        k(  369) = (  -0.3000000   0.1732051  -0.2420051), wk =   0.0040000
        k(  370) = (  -0.3000000   0.1732051  -0.1210026), wk =   0.0040000
        k(  371) = (  -0.3000000   0.2886751   0.0000000), wk =   0.0040000
        k(  372) = (  -0.3000000   0.2886751   0.1210026), wk =   0.0040000
        k(  373) = (  -0.3000000   0.2886751   0.2420051), wk =   0.0040000
        k(  374) = (  -0.3000000   0.2886751  -0.2420051), wk =   0.0040000
        k(  375) = (  -0.3000000   0.2886751  -0.1210026), wk =   0.0040000
        k(  376) = (  -0.3000000  -0.7505553   0.0000000), wk =   0.0040000
        k(  377) = (  -0.3000000  -0.7505553   0.1210026), wk =   0.0040000
        k(  378) = (  -0.3000000  -0.7505553   0.2420051), wk =   0.0040000
        k(  379) = (  -0.3000000  -0.7505553  -0.2420051), wk =   0.0040000
        k(  380) = (  -0.3000000  -0.7505553  -0.1210026), wk =   0.0040000
        k(  381) = (  -0.3000000  -0.6350853   0.0000000), wk =   0.0040000
        k(  382) = (  -0.3000000  -0.6350853   0.1210026), wk =   0.0040000
        k(  383) = (  -0.3000000  -0.6350853   0.2420051), wk =   0.0040000
        k(  384) = (  -0.3000000  -0.6350853  -0.2420051), wk =   0.0040000
        k(  385) = (  -0.3000000  -0.6350853  -0.1210026), wk =   0.0040000
        k(  386) = (  -0.3000000  -0.5196152   0.0000000), wk =   0.0040000
        k(  387) = (  -0.3000000  -0.5196152   0.1210026), wk =   0.0040000
        k(  388) = (  -0.3000000  -0.5196152   0.2420051), wk =   0.0040000
        k(  389) = (  -0.3000000  -0.5196152  -0.2420051), wk =   0.0040000
        k(  390) = (  -0.3000000  -0.5196152  -0.1210026), wk =   0.0040000
        k(  391) = (  -0.3000000  -0.4041452   0.0000000), wk =   0.0040000
        k(  392) = (  -0.3000000  -0.4041452   0.1210026), wk =   0.0040000
        k(  393) = (  -0.3000000  -0.4041452   0.2420051), wk =   0.0040000
        k(  394) = (  -0.3000000  -0.4041452  -0.2420051), wk =   0.0040000
        k(  395) = (  -0.3000000  -0.4041452  -0.1210026), wk =   0.0040000
        k(  396) = (  -0.3000000  -0.2886751   0.0000000), wk =   0.0040000
        k(  397) = (  -0.3000000  -0.2886751   0.1210026), wk =   0.0040000
        k(  398) = (  -0.3000000  -0.2886751   0.2420051), wk =   0.0040000
        k(  399) = (  -0.3000000  -0.2886751  -0.2420051), wk =   0.0040000
        k(  400) = (  -0.3000000  -0.2886751  -0.1210026), wk =   0.0040000
        k(  401) = (  -0.2000000  -0.1154701   0.0000000), wk =   0.0040000
        k(  402) = (  -0.2000000  -0.1154701   0.1210026), wk =   0.0040000
        k(  403) = (  -0.2000000  -0.1154701   0.2420051), wk =   0.0040000
        k(  404) = (  -0.2000000  -0.1154701  -0.2420051), wk =   0.0040000
        k(  405) = (  -0.2000000  -0.1154701  -0.1210026), wk =   0.0040000
        k(  406) = (  -0.2000000   0.0000000   0.0000000), wk =   0.0040000
        k(  407) = (  -0.2000000   0.0000000   0.1210026), wk =   0.0040000
        k(  408) = (  -0.2000000   0.0000000   0.2420051), wk =   0.0040000
        k(  409) = (  -0.2000000   0.0000000  -0.2420051), wk =   0.0040000
        k(  410) = (  -0.2000000   0.0000000  -0.1210026), wk =   0.0040000
        k(  411) = (  -0.2000000   0.1154701   0.0000000), wk =   0.0040000
        k(  412) = (  -0.2000000   0.1154701   0.1210026), wk =   0.0040000
        k(  413) = (  -0.2000000   0.1154701   0.2420051), wk =   0.0040000
        k(  414) = (  -0.2000000   0.1154701  -0.2420051), wk =   0.0040000
        k(  415) = (  -0.2000000   0.1154701  -0.1210026), wk =   0.0040000
        k(  416) = (  -0.2000000   0.2309401   0.0000000), wk =   0.0040000
        k(  417) = (  -0.2000000   0.2309401   0.1210026), wk =   0.0040000
        k(  418) = (  -0.2000000   0.2309401   0.2420051), wk =   0.0040000
        k(  419) = (  -0.2000000   0.2309401  -0.2420051), wk =   0.0040000
        k(  420) = (  -0.2000000   0.2309401  -0.1210026), wk =   0.0040000
        k(  421) = (  -0.2000000   0.3464102   0.0000000), wk =   0.0040000
        k(  422) = (  -0.2000000   0.3464102   0.1210026), wk =   0.0040000
        k(  423) = (  -0.2000000   0.3464102   0.2420051), wk =   0.0040000
        k(  424) = (  -0.2000000   0.3464102  -0.2420051), wk =   0.0040000
        k(  425) = (  -0.2000000   0.3464102  -0.1210026), wk =   0.0040000
        k(  426) = (  -0.2000000  -0.6928203   0.0000000), wk =   0.0040000
        k(  427) = (  -0.2000000  -0.6928203   0.1210026), wk =   0.0040000
        k(  428) = (  -0.2000000  -0.6928203   0.2420051), wk =   0.0040000
        k(  429) = (  -0.2000000  -0.6928203  -0.2420051), wk =   0.0040000
        k(  430) = (  -0.2000000  -0.6928203  -0.1210026), wk =   0.0040000
        k(  431) = (  -0.2000000  -0.5773503   0.0000000), wk =   0.0040000
        k(  432) = (  -0.2000000  -0.5773503   0.1210026), wk =   0.0040000
        k(  433) = (  -0.2000000  -0.5773503   0.2420051), wk =   0.0040000
        k(  434) = (  -0.2000000  -0.5773503  -0.2420051), wk =   0.0040000
        k(  435) = (  -0.2000000  -0.5773503  -0.1210026), wk =   0.0040000
        k(  436) = (  -0.2000000  -0.4618802   0.0000000), wk =   0.0040000
        k(  437) = (  -0.2000000  -0.4618802   0.1210026), wk =   0.0040000
        k(  438) = (  -0.2000000  -0.4618802   0.2420051), wk =   0.0040000
        k(  439) = (  -0.2000000  -0.4618802  -0.2420051), wk =   0.0040000
        k(  440) = (  -0.2000000  -0.4618802  -0.1210026), wk =   0.0040000
        k(  441) = (  -0.2000000  -0.3464102   0.0000000), wk =   0.0040000
        k(  442) = (  -0.2000000  -0.3464102   0.1210026), wk =   0.0040000
        k(  443) = (  -0.2000000  -0.3464102   0.2420051), wk =   0.0040000
        k(  444) = (  -0.2000000  -0.3464102  -0.2420051), wk =   0.0040000
        k(  445) = (  -0.2000000  -0.3464102  -0.1210026), wk =   0.0040000
        k(  446) = (  -0.2000000  -0.2309401   0.0000000), wk =   0.0040000
        k(  447) = (  -0.2000000  -0.2309401   0.1210026), wk =   0.0040000
        k(  448) = (  -0.2000000  -0.2309401   0.2420051), wk =   0.0040000
        k(  449) = (  -0.2000000  -0.2309401  -0.2420051), wk =   0.0040000
        k(  450) = (  -0.2000000  -0.2309401  -0.1210026), wk =   0.0040000
        k(  451) = (  -0.1000000  -0.0577350   0.0000000), wk =   0.0040000
        k(  452) = (  -0.1000000  -0.0577350   0.1210026), wk =   0.0040000
        k(  453) = (  -0.1000000  -0.0577350   0.2420051), wk =   0.0040000
        k(  454) = (  -0.1000000  -0.0577350  -0.2420051), wk =   0.0040000
        k(  455) = (  -0.1000000  -0.0577350  -0.1210026), wk =   0.0040000
        k(  456) = (  -0.1000000   0.0577350   0.0000000), wk =   0.0040000
        k(  457) = (  -0.1000000   0.0577350   0.1210026), wk =   0.0040000
        k(  458) = (  -0.1000000   0.0577350   0.2420051), wk =   0.0040000
        k(  459) = (  -0.1000000   0.0577350  -0.2420051), wk =   0.0040000
        k(  460) = (  -0.1000000   0.0577350  -0.1210026), wk =   0.0040000
        k(  461) = (  -0.1000000   0.1732051   0.0000000), wk =   0.0040000
        k(  462) = (  -0.1000000   0.1732051   0.1210026), wk =   0.0040000
        k(  463) = (  -0.1000000   0.1732051   0.2420051), wk =   0.0040000
        k(  464) = (  -0.1000000   0.1732051  -0.2420051), wk =   0.0040000
        k(  465) = (  -0.1000000   0.1732051  -0.1210026), wk =   0.0040000
        k(  466) = (  -0.1000000   0.2886751   0.0000000), wk =   0.0040000
        k(  467) = (  -0.1000000   0.2886751   0.1210026), wk =   0.0040000
        k(  468) = (  -0.1000000   0.2886751   0.2420051), wk =   0.0040000
        k(  469) = (  -0.1000000   0.2886751  -0.2420051), wk =   0.0040000
        k(  470) = (  -0.1000000   0.2886751  -0.1210026), wk =   0.0040000
        k(  471) = (  -0.1000000   0.4041452   0.0000000), wk =   0.0040000
        k(  472) = (  -0.1000000   0.4041452   0.1210026), wk =   0.0040000
        k(  473) = (  -0.1000000   0.4041452   0.2420051), wk =   0.0040000
        k(  474) = (  -0.1000000   0.4041452  -0.2420051), wk =   0.0040000
        k(  475) = (  -0.1000000   0.4041452  -0.1210026), wk =   0.0040000
        k(  476) = (  -0.1000000  -0.6350853   0.0000000), wk =   0.0040000
        k(  477) = (  -0.1000000  -0.6350853   0.1210026), wk =   0.0040000
        k(  478) = (  -0.1000000  -0.6350853   0.2420051), wk =   0.0040000
        k(  479) = (  -0.1000000  -0.6350853  -0.2420051), wk =   0.0040000
        k(  480) = (  -0.1000000  -0.6350853  -0.1210026), wk =   0.0040000
        k(  481) = (  -0.1000000  -0.5196152   0.0000000), wk =   0.0040000
        k(  482) = (  -0.1000000  -0.5196152   0.1210026), wk =   0.0040000
        k(  483) = (  -0.1000000  -0.5196152   0.2420051), wk =   0.0040000
        k(  484) = (  -0.1000000  -0.5196152  -0.2420051), wk =   0.0040000
        k(  485) = (  -0.1000000  -0.5196152  -0.1210026), wk =   0.0040000
        k(  486) = (  -0.1000000  -0.4041452   0.0000000), wk =   0.0040000
        k(  487) = (  -0.1000000  -0.4041452   0.1210026), wk =   0.0040000
        k(  488) = (  -0.1000000  -0.4041452   0.2420051), wk =   0.0040000
        k(  489) = (  -0.1000000  -0.4041452  -0.2420051), wk =   0.0040000
        k(  490) = (  -0.1000000  -0.4041452  -0.1210026), wk =   0.0040000
        k(  491) = (  -0.1000000  -0.2886751   0.0000000), wk =   0.0040000
        k(  492) = (  -0.1000000  -0.2886751   0.1210026), wk =   0.0040000
        k(  493) = (  -0.1000000  -0.2886751   0.2420051), wk =   0.0040000
        k(  494) = (  -0.1000000  -0.2886751  -0.2420051), wk =   0.0040000
        k(  495) = (  -0.1000000  -0.2886751  -0.1210026), wk =   0.0040000
        k(  496) = (  -0.1000000  -0.1732051   0.0000000), wk =   0.0040000
        k(  497) = (  -0.1000000  -0.1732051   0.1210026), wk =   0.0040000
        k(  498) = (  -0.1000000  -0.1732051   0.2420051), wk =   0.0040000
        k(  499) = (  -0.1000000  -0.1732051  -0.2420051), wk =   0.0040000
        k(  500) = (  -0.1000000  -0.1732051  -0.1210026), wk =   0.0040000

                       cryst. coord.
        k(    1) = (   0.0000000   0.0000000   0.0000000), wk =   0.0040000
        k(    2) = (   0.0000000   0.0000000   0.2000000), wk =   0.0040000
        k(    3) = (   0.0000000   0.0000000   0.4000000), wk =   0.0040000
        k(    4) = (   0.0000000   0.0000000  -0.4000000), wk =   0.0040000
        k(    5) = (   0.0000000   0.0000000  -0.2000000), wk =   0.0040000
        k(    6) = (   0.0000000   0.1000000   0.0000000), wk =   0.0040000
        k(    7) = (   0.0000000   0.1000000   0.2000000), wk =   0.0040000
        k(    8) = (   0.0000000   0.1000000   0.4000000), wk =   0.0040000
        k(    9) = (   0.0000000   0.1000000  -0.4000000), wk =   0.0040000
        k(   10) = (   0.0000000   0.1000000  -0.2000000), wk =   0.0040000
        k(   11) = (   0.0000000   0.2000000   0.0000000), wk =   0.0040000
        k(   12) = (   0.0000000   0.2000000   0.2000000), wk =   0.0040000
        k(   13) = (   0.0000000   0.2000000   0.4000000), wk =   0.0040000
        k(   14) = (   0.0000000   0.2000000  -0.4000000), wk =   0.0040000
        k(   15) = (   0.0000000   0.2000000  -0.2000000), wk =   0.0040000
        k(   16) = (   0.0000000   0.3000000   0.0000000), wk =   0.0040000
        k(   17) = (   0.0000000   0.3000000   0.2000000), wk =   0.0040000
        k(   18) = (   0.0000000   0.3000000   0.4000000), wk =   0.0040000
        k(   19) = (   0.0000000   0.3000000  -0.4000000), wk =   0.0040000
        k(   20) = (   0.0000000   0.3000000  -0.2000000), wk =   0.0040000
        k(   21) = (   0.0000000   0.4000000   0.0000000), wk =   0.0040000
        k(   22) = (   0.0000000   0.4000000   0.2000000), wk =   0.0040000
        k(   23) = (   0.0000000   0.4000000   0.4000000), wk =   0.0040000
        k(   24) = (   0.0000000   0.4000000  -0.4000000), wk =   0.0040000
        k(   25) = (   0.0000000   0.4000000  -0.2000000), wk =   0.0040000
        k(   26) = (   0.0000000  -0.5000000   0.0000000), wk =   0.0040000
        k(   27) = (   0.0000000  -0.5000000   0.2000000), wk =   0.0040000
        k(   28) = (   0.0000000  -0.5000000   0.4000000), wk =   0.0040000
        k(   29) = (   0.0000000  -0.5000000  -0.4000000), wk =   0.0040000
        k(   30) = (   0.0000000  -0.5000000  -0.2000000), wk =   0.0040000
        k(   31) = (   0.0000000  -0.4000000   0.0000000), wk =   0.0040000
        k(   32) = (   0.0000000  -0.4000000   0.2000000), wk =   0.0040000
        k(   33) = (   0.0000000  -0.4000000   0.4000000), wk =   0.0040000
        k(   34) = (   0.0000000  -0.4000000  -0.4000000), wk =   0.0040000
        k(   35) = (   0.0000000  -0.4000000  -0.2000000), wk =   0.0040000
        k(   36) = (   0.0000000  -0.3000000   0.0000000), wk =   0.0040000
        k(   37) = (   0.0000000  -0.3000000   0.2000000), wk =   0.0040000
        k(   38) = (   0.0000000  -0.3000000   0.4000000), wk =   0.0040000
        k(   39) = (   0.0000000  -0.3000000  -0.4000000), wk =   0.0040000
        k(   40) = (   0.0000000  -0.3000000  -0.2000000), wk =   0.0040000
        k(   41) = (   0.0000000  -0.2000000   0.0000000), wk =   0.0040000
        k(   42) = (   0.0000000  -0.2000000   0.2000000), wk =   0.0040000
        k(   43) = (   0.0000000  -0.2000000   0.4000000), wk =   0.0040000
        k(   44) = (   0.0000000  -0.2000000  -0.4000000), wk =   0.0040000
        k(   45) = (   0.0000000  -0.2000000  -0.2000000), wk =   0.0040000
        k(   46) = (   0.0000000  -0.1000000   0.0000000), wk =   0.0040000
        k(   47) = (   0.0000000  -0.1000000   0.2000000), wk =   0.0040000
        k(   48) = (   0.0000000  -0.1000000   0.4000000), wk =   0.0040000
        k(   49) = (   0.0000000  -0.1000000  -0.4000000), wk =   0.0040000
        k(   50) = (   0.0000000  -0.1000000  -0.2000000), wk =   0.0040000
        k(   51) = (   0.1000000   0.0000000   0.0000000), wk =   0.0040000
        k(   52) = (   0.1000000   0.0000000   0.2000000), wk =   0.0040000
        k(   53) = (   0.1000000   0.0000000   0.4000000), wk =   0.0040000
        k(   54) = (   0.1000000   0.0000000  -0.4000000), wk =   0.0040000
        k(   55) = (   0.1000000   0.0000000  -0.2000000), wk =   0.0040000
        k(   56) = (   0.1000000   0.1000000   0.0000000), wk =   0.0040000
        k(   57) = (   0.1000000   0.1000000   0.2000000), wk =   0.0040000
        k(   58) = (   0.1000000   0.1000000   0.4000000), wk =   0.0040000
        k(   59) = (   0.1000000   0.1000000  -0.4000000), wk =   0.0040000
        k(   60) = (   0.1000000   0.1000000  -0.2000000), wk =   0.0040000
        k(   61) = (   0.1000000   0.2000000   0.0000000), wk =   0.0040000
        k(   62) = (   0.1000000   0.2000000   0.2000000), wk =   0.0040000
        k(   63) = (   0.1000000   0.2000000   0.4000000), wk =   0.0040000
        k(   64) = (   0.1000000   0.2000000  -0.4000000), wk =   0.0040000
        k(   65) = (   0.1000000   0.2000000  -0.2000000), wk =   0.0040000
        k(   66) = (   0.1000000   0.3000000   0.0000000), wk =   0.0040000
        k(   67) = (   0.1000000   0.3000000   0.2000000), wk =   0.0040000
        k(   68) = (   0.1000000   0.3000000   0.4000000), wk =   0.0040000
        k(   69) = (   0.1000000   0.3000000  -0.4000000), wk =   0.0040000
        k(   70) = (   0.1000000   0.3000000  -0.2000000), wk =   0.0040000
        k(   71) = (   0.1000000   0.4000000   0.0000000), wk =   0.0040000
        k(   72) = (   0.1000000   0.4000000   0.2000000), wk =   0.0040000
        k(   73) = (   0.1000000   0.4000000   0.4000000), wk =   0.0040000
        k(   74) = (   0.1000000   0.4000000  -0.4000000), wk =   0.0040000
        k(   75) = (   0.1000000   0.4000000  -0.2000000), wk =   0.0040000
        k(   76) = (   0.1000000  -0.5000000   0.0000000), wk =   0.0040000
        k(   77) = (   0.1000000  -0.5000000   0.2000000), wk =   0.0040000
        k(   78) = (   0.1000000  -0.5000000   0.4000000), wk =   0.0040000
        k(   79) = (   0.1000000  -0.5000000  -0.4000000), wk =   0.0040000
        k(   80) = (   0.1000000  -0.5000000  -0.2000000), wk =   0.0040000
        k(   81) = (   0.1000000  -0.4000000   0.0000000), wk =   0.0040000
        k(   82) = (   0.1000000  -0.4000000   0.2000000), wk =   0.0040000
        k(   83) = (   0.1000000  -0.4000000   0.4000000), wk =   0.0040000
        k(   84) = (   0.1000000  -0.4000000  -0.4000000), wk =   0.0040000
        k(   85) = (   0.1000000  -0.4000000  -0.2000000), wk =   0.0040000
        k(   86) = (   0.1000000  -0.3000000   0.0000000), wk =   0.0040000
        k(   87) = (   0.1000000  -0.3000000   0.2000000), wk =   0.0040000
        k(   88) = (   0.1000000  -0.3000000   0.4000000), wk =   0.0040000
        k(   89) = (   0.1000000  -0.3000000  -0.4000000), wk =   0.0040000
        k(   90) = (   0.1000000  -0.3000000  -0.2000000), wk =   0.0040000
        k(   91) = (   0.1000000  -0.2000000   0.0000000), wk =   0.0040000
        k(   92) = (   0.1000000  -0.2000000   0.2000000), wk =   0.0040000
        k(   93) = (   0.1000000  -0.2000000   0.4000000), wk =   0.0040000
        k(   94) = (   0.1000000  -0.2000000  -0.4000000), wk =   0.0040000
        k(   95) = (   0.1000000  -0.2000000  -0.2000000), wk =   0.0040000
        k(   96) = (   0.1000000  -0.1000000   0.0000000), wk =   0.0040000
        k(   97) = (   0.1000000  -0.1000000   0.2000000), wk =   0.0040000
        k(   98) = (   0.1000000  -0.1000000   0.4000000), wk =   0.0040000
        k(   99) = (   0.1000000  -0.1000000  -0.4000000), wk =   0.0040000
        k(  100) = (   0.1000000  -0.1000000  -0.2000000), wk =   0.0040000
        k(  101) = (   0.2000000   0.0000000   0.0000000), wk =   0.0040000
        k(  102) = (   0.2000000   0.0000000   0.2000000), wk =   0.0040000
        k(  103) = (   0.2000000   0.0000000   0.4000000), wk =   0.0040000
        k(  104) = (   0.2000000   0.0000000  -0.4000000), wk =   0.0040000
        k(  105) = (   0.2000000   0.0000000  -0.2000000), wk =   0.0040000
        k(  106) = (   0.2000000   0.1000000   0.0000000), wk =   0.0040000
        k(  107) = (   0.2000000   0.1000000   0.2000000), wk =   0.0040000
        k(  108) = (   0.2000000   0.1000000   0.4000000), wk =   0.0040000
        k(  109) = (   0.2000000   0.1000000  -0.4000000), wk =   0.0040000
        k(  110) = (   0.2000000   0.1000000  -0.2000000), wk =   0.0040000
        k(  111) = (   0.2000000   0.2000000   0.0000000), wk =   0.0040000
        k(  112) = (   0.2000000   0.2000000   0.2000000), wk =   0.0040000
        k(  113) = (   0.2000000   0.2000000   0.4000000), wk =   0.0040000
        k(  114) = (   0.2000000   0.2000000  -0.4000000), wk =   0.0040000
        k(  115) = (   0.2000000   0.2000000  -0.2000000), wk =   0.0040000
        k(  116) = (   0.2000000   0.3000000   0.0000000), wk =   0.0040000
        k(  117) = (   0.2000000   0.3000000   0.2000000), wk =   0.0040000
        k(  118) = (   0.2000000   0.3000000   0.4000000), wk =   0.0040000
        k(  119) = (   0.2000000   0.3000000  -0.4000000), wk =   0.0040000
        k(  120) = (   0.2000000   0.3000000  -0.2000000), wk =   0.0040000
        k(  121) = (   0.2000000   0.4000000   0.0000000), wk =   0.0040000
        k(  122) = (   0.2000000   0.4000000   0.2000000), wk =   0.0040000
        k(  123) = (   0.2000000   0.4000000   0.4000000), wk =   0.0040000
        k(  124) = (   0.2000000   0.4000000  -0.4000000), wk =   0.0040000
        k(  125) = (   0.2000000   0.4000000  -0.2000000), wk =   0.0040000
        k(  126) = (   0.2000000  -0.5000000   0.0000000), wk =   0.0040000
        k(  127) = (   0.2000000  -0.5000000   0.2000000), wk =   0.0040000
        k(  128) = (   0.2000000  -0.5000000   0.4000000), wk =   0.0040000
        k(  129) = (   0.2000000  -0.5000000  -0.4000000), wk =   0.0040000
        k(  130) = (   0.2000000  -0.5000000  -0.2000000), wk =   0.0040000
        k(  131) = (   0.2000000  -0.4000000   0.0000000), wk =   0.0040000
        k(  132) = (   0.2000000  -0.4000000   0.2000000), wk =   0.0040000
        k(  133) = (   0.2000000  -0.4000000   0.4000000), wk =   0.0040000
        k(  134) = (   0.2000000  -0.4000000  -0.4000000), wk =   0.0040000
        k(  135) = (   0.2000000  -0.4000000  -0.2000000), wk =   0.0040000
        k(  136) = (   0.2000000  -0.3000000   0.0000000), wk =   0.0040000
        k(  137) = (   0.2000000  -0.3000000   0.2000000), wk =   0.0040000
        k(  138) = (   0.2000000  -0.3000000   0.4000000), wk =   0.0040000
        k(  139) = (   0.2000000  -0.3000000  -0.4000000), wk =   0.0040000
        k(  140) = (   0.2000000  -0.3000000  -0.2000000), wk =   0.0040000
        k(  141) = (   0.2000000  -0.2000000   0.0000000), wk =   0.0040000
        k(  142) = (   0.2000000  -0.2000000   0.2000000), wk =   0.0040000
        k(  143) = (   0.2000000  -0.2000000   0.4000000), wk =   0.0040000
        k(  144) = (   0.2000000  -0.2000000  -0.4000000), wk =   0.0040000
        k(  145) = (   0.2000000  -0.2000000  -0.2000000), wk =   0.0040000
        k(  146) = (   0.2000000  -0.1000000   0.0000000), wk =   0.0040000
        k(  147) = (   0.2000000  -0.1000000   0.2000000), wk =   0.0040000
        k(  148) = (   0.2000000  -0.1000000   0.4000000), wk =   0.0040000
        k(  149) = (   0.2000000  -0.1000000  -0.4000000), wk =   0.0040000
        k(  150) = (   0.2000000  -0.1000000  -0.2000000), wk =   0.0040000
        k(  151) = (   0.3000000   0.0000000   0.0000000), wk =   0.0040000
        k(  152) = (   0.3000000   0.0000000   0.2000000), wk =   0.0040000
        k(  153) = (   0.3000000   0.0000000   0.4000000), wk =   0.0040000
        k(  154) = (   0.3000000   0.0000000  -0.4000000), wk =   0.0040000
        k(  155) = (   0.3000000   0.0000000  -0.2000000), wk =   0.0040000
        k(  156) = (   0.3000000   0.1000000   0.0000000), wk =   0.0040000
        k(  157) = (   0.3000000   0.1000000   0.2000000), wk =   0.0040000
        k(  158) = (   0.3000000   0.1000000   0.4000000), wk =   0.0040000
        k(  159) = (   0.3000000   0.1000000  -0.4000000), wk =   0.0040000
        k(  160) = (   0.3000000   0.1000000  -0.2000000), wk =   0.0040000
        k(  161) = (   0.3000000   0.2000000   0.0000000), wk =   0.0040000
        k(  162) = (   0.3000000   0.2000000   0.2000000), wk =   0.0040000
        k(  163) = (   0.3000000   0.2000000   0.4000000), wk =   0.0040000
        k(  164) = (   0.3000000   0.2000000  -0.4000000), wk =   0.0040000
        k(  165) = (   0.3000000   0.2000000  -0.2000000), wk =   0.0040000
        k(  166) = (   0.3000000   0.3000000   0.0000000), wk =   0.0040000
        k(  167) = (   0.3000000   0.3000000   0.2000000), wk =   0.0040000
        k(  168) = (   0.3000000   0.3000000   0.4000000), wk =   0.0040000
        k(  169) = (   0.3000000   0.3000000  -0.4000000), wk =   0.0040000
        k(  170) = (   0.3000000   0.3000000  -0.2000000), wk =   0.0040000
        k(  171) = (   0.3000000   0.4000000   0.0000000), wk =   0.0040000
        k(  172) = (   0.3000000   0.4000000   0.2000000), wk =   0.0040000
        k(  173) = (   0.3000000   0.4000000   0.4000000), wk =   0.0040000
        k(  174) = (   0.3000000   0.4000000  -0.4000000), wk =   0.0040000
        k(  175) = (   0.3000000   0.4000000  -0.2000000), wk =   0.0040000
        k(  176) = (   0.3000000  -0.5000000   0.0000000), wk =   0.0040000
        k(  177) = (   0.3000000  -0.5000000   0.2000000), wk =   0.0040000
        k(  178) = (   0.3000000  -0.5000000   0.4000000), wk =   0.0040000
        k(  179) = (   0.3000000  -0.5000000  -0.4000000), wk =   0.0040000
        k(  180) = (   0.3000000  -0.5000000  -0.2000000), wk =   0.0040000
        k(  181) = (   0.3000000  -0.4000000   0.0000000), wk =   0.0040000
        k(  182) = (   0.3000000  -0.4000000   0.2000000), wk =   0.0040000
        k(  183) = (   0.3000000  -0.4000000   0.4000000), wk =   0.0040000
        k(  184) = (   0.3000000  -0.4000000  -0.4000000), wk =   0.0040000
        k(  185) = (   0.3000000  -0.4000000  -0.2000000), wk =   0.0040000
        k(  186) = (   0.3000000  -0.3000000   0.0000000), wk =   0.0040000
        k(  187) = (   0.3000000  -0.3000000   0.2000000), wk =   0.0040000
        k(  188) = (   0.3000000  -0.3000000   0.4000000), wk =   0.0040000
        k(  189) = (   0.3000000  -0.3000000  -0.4000000), wk =   0.0040000
        k(  190) = (   0.3000000  -0.3000000  -0.2000000), wk =   0.0040000
        k(  191) = (   0.3000000  -0.2000000   0.0000000), wk =   0.0040000
        k(  192) = (   0.3000000  -0.2000000   0.2000000), wk =   0.0040000
        k(  193) = (   0.3000000  -0.2000000   0.4000000), wk =   0.0040000
        k(  194) = (   0.3000000  -0.2000000  -0.4000000), wk =   0.0040000
        k(  195) = (   0.3000000  -0.2000000  -0.2000000), wk =   0.0040000
        k(  196) = (   0.3000000  -0.1000000   0.0000000), wk =   0.0040000
        k(  197) = (   0.3000000  -0.1000000   0.2000000), wk =   0.0040000
        k(  198) = (   0.3000000  -0.1000000   0.4000000), wk =   0.0040000
        k(  199) = (   0.3000000  -0.1000000  -0.4000000), wk =   0.0040000
        k(  200) = (   0.3000000  -0.1000000  -0.2000000), wk =   0.0040000
        k(  201) = (   0.4000000   0.0000000   0.0000000), wk =   0.0040000
        k(  202) = (   0.4000000   0.0000000   0.2000000), wk =   0.0040000
        k(  203) = (   0.4000000   0.0000000   0.4000000), wk =   0.0040000
        k(  204) = (   0.4000000   0.0000000  -0.4000000), wk =   0.0040000
        k(  205) = (   0.4000000   0.0000000  -0.2000000), wk =   0.0040000
        k(  206) = (   0.4000000   0.1000000   0.0000000), wk =   0.0040000
        k(  207) = (   0.4000000   0.1000000   0.2000000), wk =   0.0040000
        k(  208) = (   0.4000000   0.1000000   0.4000000), wk =   0.0040000
        k(  209) = (   0.4000000   0.1000000  -0.4000000), wk =   0.0040000
        k(  210) = (   0.4000000   0.1000000  -0.2000000), wk =   0.0040000
        k(  211) = (   0.4000000   0.2000000   0.0000000), wk =   0.0040000
        k(  212) = (   0.4000000   0.2000000   0.2000000), wk =   0.0040000
        k(  213) = (   0.4000000   0.2000000   0.4000000), wk =   0.0040000
        k(  214) = (   0.4000000   0.2000000  -0.4000000), wk =   0.0040000
        k(  215) = (   0.4000000   0.2000000  -0.2000000), wk =   0.0040000
        k(  216) = (   0.4000000   0.3000000   0.0000000), wk =   0.0040000
        k(  217) = (   0.4000000   0.3000000   0.2000000), wk =   0.0040000
        k(  218) = (   0.4000000   0.3000000   0.4000000), wk =   0.0040000
        k(  219) = (   0.4000000   0.3000000  -0.4000000), wk =   0.0040000
        k(  220) = (   0.4000000   0.3000000  -0.2000000), wk =   0.0040000
        k(  221) = (   0.4000000   0.4000000   0.0000000), wk =   0.0040000
        k(  222) = (   0.4000000   0.4000000   0.2000000), wk =   0.0040000
        k(  223) = (   0.4000000   0.4000000   0.4000000), wk =   0.0040000
        k(  224) = (   0.4000000   0.4000000  -0.4000000), wk =   0.0040000
        k(  225) = (   0.4000000   0.4000000  -0.2000000), wk =   0.0040000
        k(  226) = (   0.4000000  -0.5000000   0.0000000), wk =   0.0040000
        k(  227) = (   0.4000000  -0.5000000   0.2000000), wk =   0.0040000
        k(  228) = (   0.4000000  -0.5000000   0.4000000), wk =   0.0040000
        k(  229) = (   0.4000000  -0.5000000  -0.4000000), wk =   0.0040000
        k(  230) = (   0.4000000  -0.5000000  -0.2000000), wk =   0.0040000
        k(  231) = (   0.4000000  -0.4000000   0.0000000), wk =   0.0040000
        k(  232) = (   0.4000000  -0.4000000   0.2000000), wk =   0.0040000
        k(  233) = (   0.4000000  -0.4000000   0.4000000), wk =   0.0040000
        k(  234) = (   0.4000000  -0.4000000  -0.4000000), wk =   0.0040000
        k(  235) = (   0.4000000  -0.4000000  -0.2000000), wk =   0.0040000
        k(  236) = (   0.4000000  -0.3000000   0.0000000), wk =   0.0040000
        k(  237) = (   0.4000000  -0.3000000   0.2000000), wk =   0.0040000
        k(  238) = (   0.4000000  -0.3000000   0.4000000), wk =   0.0040000
        k(  239) = (   0.4000000  -0.3000000  -0.4000000), wk =   0.0040000
        k(  240) = (   0.4000000  -0.3000000  -0.2000000), wk =   0.0040000
        k(  241) = (   0.4000000  -0.2000000   0.0000000), wk =   0.0040000
        k(  242) = (   0.4000000  -0.2000000   0.2000000), wk =   0.0040000
        k(  243) = (   0.4000000  -0.2000000   0.4000000), wk =   0.0040000
        k(  244) = (   0.4000000  -0.2000000  -0.4000000), wk =   0.0040000
        k(  245) = (   0.4000000  -0.2000000  -0.2000000), wk =   0.0040000
        k(  246) = (   0.4000000  -0.1000000   0.0000000), wk =   0.0040000
        k(  247) = (   0.4000000  -0.1000000   0.2000000), wk =   0.0040000
        k(  248) = (   0.4000000  -0.1000000   0.4000000), wk =   0.0040000
        k(  249) = (   0.4000000  -0.1000000  -0.4000000), wk =   0.0040000
        k(  250) = (   0.4000000  -0.1000000  -0.2000000), wk =   0.0040000
        k(  251) = (  -0.5000000   0.0000000   0.0000000), wk =   0.0040000
        k(  252) = (  -0.5000000   0.0000000   0.2000000), wk =   0.0040000
        k(  253) = (  -0.5000000   0.0000000   0.4000000), wk =   0.0040000
        k(  254) = (  -0.5000000   0.0000000  -0.4000000), wk =   0.0040000
        k(  255) = (  -0.5000000   0.0000000  -0.2000000), wk =   0.0040000
        k(  256) = (  -0.5000000   0.1000000   0.0000000), wk =   0.0040000
        k(  257) = (  -0.5000000   0.1000000   0.2000000), wk =   0.0040000
        k(  258) = (  -0.5000000   0.1000000   0.4000000), wk =   0.0040000
        k(  259) = (  -0.5000000   0.1000000  -0.4000000), wk =   0.0040000
        k(  260) = (  -0.5000000   0.1000000  -0.2000000), wk =   0.0040000
        k(  261) = (  -0.5000000   0.2000000   0.0000000), wk =   0.0040000
        k(  262) = (  -0.5000000   0.2000000   0.2000000), wk =   0.0040000
        k(  263) = (  -0.5000000   0.2000000   0.4000000), wk =   0.0040000
        k(  264) = (  -0.5000000   0.2000000  -0.4000000), wk =   0.0040000
        k(  265) = (  -0.5000000   0.2000000  -0.2000000), wk =   0.0040000
        k(  266) = (  -0.5000000   0.3000000   0.0000000), wk =   0.0040000
        k(  267) = (  -0.5000000   0.3000000   0.2000000), wk =   0.0040000
        k(  268) = (  -0.5000000   0.3000000   0.4000000), wk =   0.0040000
        k(  269) = (  -0.5000000   0.3000000  -0.4000000), wk =   0.0040000
        k(  270) = (  -0.5000000   0.3000000  -0.2000000), wk =   0.0040000
        k(  271) = (  -0.5000000   0.4000000   0.0000000), wk =   0.0040000
        k(  272) = (  -0.5000000   0.4000000   0.2000000), wk =   0.0040000
        k(  273) = (  -0.5000000   0.4000000   0.4000000), wk =   0.0040000
        k(  274) = (  -0.5000000   0.4000000  -0.4000000), wk =   0.0040000
        k(  275) = (  -0.5000000   0.4000000  -0.2000000), wk =   0.0040000
        k(  276) = (  -0.5000000  -0.5000000   0.0000000), wk =   0.0040000
        k(  277) = (  -0.5000000  -0.5000000   0.2000000), wk =   0.0040000
        k(  278) = (  -0.5000000  -0.5000000   0.4000000), wk =   0.0040000
        k(  279) = (  -0.5000000  -0.5000000  -0.4000000), wk =   0.0040000
        k(  280) = (  -0.5000000  -0.5000000  -0.2000000), wk =   0.0040000
        k(  281) = (  -0.5000000  -0.4000000   0.0000000), wk =   0.0040000
        k(  282) = (  -0.5000000  -0.4000000   0.2000000), wk =   0.0040000
        k(  283) = (  -0.5000000  -0.4000000   0.4000000), wk =   0.0040000
        k(  284) = (  -0.5000000  -0.4000000  -0.4000000), wk =   0.0040000
        k(  285) = (  -0.5000000  -0.4000000  -0.2000000), wk =   0.0040000
        k(  286) = (  -0.5000000  -0.3000000   0.0000000), wk =   0.0040000
        k(  287) = (  -0.5000000  -0.3000000   0.2000000), wk =   0.0040000
        k(  288) = (  -0.5000000  -0.3000000   0.4000000), wk =   0.0040000
        k(  289) = (  -0.5000000  -0.3000000  -0.4000000), wk =   0.0040000
        k(  290) = (  -0.5000000  -0.3000000  -0.2000000), wk =   0.0040000
        k(  291) = (  -0.5000000  -0.2000000   0.0000000), wk =   0.0040000
        k(  292) = (  -0.5000000  -0.2000000   0.2000000), wk =   0.0040000
        k(  293) = (  -0.5000000  -0.2000000   0.4000000), wk =   0.0040000
        k(  294) = (  -0.5000000  -0.2000000  -0.4000000), wk =   0.0040000
        k(  295) = (  -0.5000000  -0.2000000  -0.2000000), wk =   0.0040000
        k(  296) = (  -0.5000000  -0.1000000   0.0000000), wk =   0.0040000
        k(  297) = (  -0.5000000  -0.1000000   0.2000000), wk =   0.0040000
        k(  298) = (  -0.5000000  -0.1000000   0.4000000), wk =   0.0040000
        k(  299) = (  -0.5000000  -0.1000000  -0.4000000), wk =   0.0040000
        k(  300) = (  -0.5000000  -0.1000000  -0.2000000), wk =   0.0040000
        k(  301) = (  -0.4000000   0.0000000   0.0000000), wk =   0.0040000
        k(  302) = (  -0.4000000   0.0000000   0.2000000), wk =   0.0040000
        k(  303) = (  -0.4000000   0.0000000   0.4000000), wk =   0.0040000
        k(  304) = (  -0.4000000   0.0000000  -0.4000000), wk =   0.0040000
        k(  305) = (  -0.4000000   0.0000000  -0.2000000), wk =   0.0040000
        k(  306) = (  -0.4000000   0.1000000   0.0000000), wk =   0.0040000
        k(  307) = (  -0.4000000   0.1000000   0.2000000), wk =   0.0040000
        k(  308) = (  -0.4000000   0.1000000   0.4000000), wk =   0.0040000
        k(  309) = (  -0.4000000   0.1000000  -0.4000000), wk =   0.0040000
        k(  310) = (  -0.4000000   0.1000000  -0.2000000), wk =   0.0040000
        k(  311) = (  -0.4000000   0.2000000   0.0000000), wk =   0.0040000
        k(  312) = (  -0.4000000   0.2000000   0.2000000), wk =   0.0040000
        k(  313) = (  -0.4000000   0.2000000   0.4000000), wk =   0.0040000
        k(  314) = (  -0.4000000   0.2000000  -0.4000000), wk =   0.0040000
        k(  315) = (  -0.4000000   0.2000000  -0.2000000), wk =   0.0040000
        k(  316) = (  -0.4000000   0.3000000   0.0000000), wk =   0.0040000
        k(  317) = (  -0.4000000   0.3000000   0.2000000), wk =   0.0040000
        k(  318) = (  -0.4000000   0.3000000   0.4000000), wk =   0.0040000
        k(  319) = (  -0.4000000   0.3000000  -0.4000000), wk =   0.0040000
        k(  320) = (  -0.4000000   0.3000000  -0.2000000), wk =   0.0040000
        k(  321) = (  -0.4000000   0.4000000   0.0000000), wk =   0.0040000
        k(  322) = (  -0.4000000   0.4000000   0.2000000), wk =   0.0040000
        k(  323) = (  -0.4000000   0.4000000   0.4000000), wk =   0.0040000
        k(  324) = (  -0.4000000   0.4000000  -0.4000000), wk =   0.0040000
        k(  325) = (  -0.4000000   0.4000000  -0.2000000), wk =   0.0040000
        k(  326) = (  -0.4000000  -0.5000000   0.0000000), wk =   0.0040000
        k(  327) = (  -0.4000000  -0.5000000   0.2000000), wk =   0.0040000
        k(  328) = (  -0.4000000  -0.5000000   0.4000000), wk =   0.0040000
        k(  329) = (  -0.4000000  -0.5000000  -0.4000000), wk =   0.0040000
        k(  330) = (  -0.4000000  -0.5000000  -0.2000000), wk =   0.0040000
        k(  331) = (  -0.4000000  -0.4000000   0.0000000), wk =   0.0040000
        k(  332) = (  -0.4000000  -0.4000000   0.2000000), wk =   0.0040000
        k(  333) = (  -0.4000000  -0.4000000   0.4000000), wk =   0.0040000
        k(  334) = (  -0.4000000  -0.4000000  -0.4000000), wk =   0.0040000
        k(  335) = (  -0.4000000  -0.4000000  -0.2000000), wk =   0.0040000
        k(  336) = (  -0.4000000  -0.3000000   0.0000000), wk =   0.0040000
        k(  337) = (  -0.4000000  -0.3000000   0.2000000), wk =   0.0040000
        k(  338) = (  -0.4000000  -0.3000000   0.4000000), wk =   0.0040000
        k(  339) = (  -0.4000000  -0.3000000  -0.4000000), wk =   0.0040000
        k(  340) = (  -0.4000000  -0.3000000  -0.2000000), wk =   0.0040000
        k(  341) = (  -0.4000000  -0.2000000   0.0000000), wk =   0.0040000
        k(  342) = (  -0.4000000  -0.2000000   0.2000000), wk =   0.0040000
        k(  343) = (  -0.4000000  -0.2000000   0.4000000), wk =   0.0040000
        k(  344) = (  -0.4000000  -0.2000000  -0.4000000), wk =   0.0040000
        k(  345) = (  -0.4000000  -0.2000000  -0.2000000), wk =   0.0040000
        k(  346) = (  -0.4000000  -0.1000000   0.0000000), wk =   0.0040000
        k(  347) = (  -0.4000000  -0.1000000   0.2000000), wk =   0.0040000
        k(  348) = (  -0.4000000  -0.1000000   0.4000000), wk =   0.0040000
        k(  349) = (  -0.4000000  -0.1000000  -0.4000000), wk =   0.0040000
        k(  350) = (  -0.4000000  -0.1000000  -0.2000000), wk =   0.0040000
        k(  351) = (  -0.3000000  -0.0000000   0.0000000), wk =   0.0040000
        k(  352) = (  -0.3000000  -0.0000000   0.2000000), wk =   0.0040000
        k(  353) = (  -0.3000000  -0.0000000   0.4000000), wk =   0.0040000
        k(  354) = (  -0.3000000  -0.0000000  -0.4000000), wk =   0.0040000
        k(  355) = (  -0.3000000  -0.0000000  -0.2000000), wk =   0.0040000
        k(  356) = (  -0.3000000   0.1000000   0.0000000), wk =   0.0040000
        k(  357) = (  -0.3000000   0.1000000   0.2000000), wk =   0.0040000
        k(  358) = (  -0.3000000   0.1000000   0.4000000), wk =   0.0040000
        k(  359) = (  -0.3000000   0.1000000  -0.4000000), wk =   0.0040000
        k(  360) = (  -0.3000000   0.1000000  -0.2000000), wk =   0.0040000
        k(  361) = (  -0.3000000   0.2000000   0.0000000), wk =   0.0040000
        k(  362) = (  -0.3000000   0.2000000   0.2000000), wk =   0.0040000
        k(  363) = (  -0.3000000   0.2000000   0.4000000), wk =   0.0040000
        k(  364) = (  -0.3000000   0.2000000  -0.4000000), wk =   0.0040000
        k(  365) = (  -0.3000000   0.2000000  -0.2000000), wk =   0.0040000
        k(  366) = (  -0.3000000   0.3000000   0.0000000), wk =   0.0040000
        k(  367) = (  -0.3000000   0.3000000   0.2000000), wk =   0.0040000
        k(  368) = (  -0.3000000   0.3000000   0.4000000), wk =   0.0040000
        k(  369) = (  -0.3000000   0.3000000  -0.4000000), wk =   0.0040000
        k(  370) = (  -0.3000000   0.3000000  -0.2000000), wk =   0.0040000
        k(  371) = (  -0.3000000   0.4000000   0.0000000), wk =   0.0040000
        k(  372) = (  -0.3000000   0.4000000   0.2000000), wk =   0.0040000
        k(  373) = (  -0.3000000   0.4000000   0.4000000), wk =   0.0040000
        k(  374) = (  -0.3000000   0.4000000  -0.4000000), wk =   0.0040000
        k(  375) = (  -0.3000000   0.4000000  -0.2000000), wk =   0.0040000
        k(  376) = (  -0.3000000  -0.5000000   0.0000000), wk =   0.0040000
        k(  377) = (  -0.3000000  -0.5000000   0.2000000), wk =   0.0040000
        k(  378) = (  -0.3000000  -0.5000000   0.4000000), wk =   0.0040000
        k(  379) = (  -0.3000000  -0.5000000  -0.4000000), wk =   0.0040000
        k(  380) = (  -0.3000000  -0.5000000  -0.2000000), wk =   0.0040000
        k(  381) = (  -0.3000000  -0.4000000   0.0000000), wk =   0.0040000
        k(  382) = (  -0.3000000  -0.4000000   0.2000000), wk =   0.0040000
        k(  383) = (  -0.3000000  -0.4000000   0.4000000), wk =   0.0040000
        k(  384) = (  -0.3000000  -0.4000000  -0.4000000), wk =   0.0040000
        k(  385) = (  -0.3000000  -0.4000000  -0.2000000), wk =   0.0040000
        k(  386) = (  -0.3000000  -0.3000000   0.0000000), wk =   0.0040000
        k(  387) = (  -0.3000000  -0.3000000   0.2000000), wk =   0.0040000
        k(  388) = (  -0.3000000  -0.3000000   0.4000000), wk =   0.0040000
        k(  389) = (  -0.3000000  -0.3000000  -0.4000000), wk =   0.0040000
        k(  390) = (  -0.3000000  -0.3000000  -0.2000000), wk =   0.0040000
        k(  391) = (  -0.3000000  -0.2000000   0.0000000), wk =   0.0040000
        k(  392) = (  -0.3000000  -0.2000000   0.2000000), wk =   0.0040000
        k(  393) = (  -0.3000000  -0.2000000   0.4000000), wk =   0.0040000
        k(  394) = (  -0.3000000  -0.2000000  -0.4000000), wk =   0.0040000
        k(  395) = (  -0.3000000  -0.2000000  -0.2000000), wk =   0.0040000
        k(  396) = (  -0.3000000  -0.1000000   0.0000000), wk =   0.0040000
        k(  397) = (  -0.3000000  -0.1000000   0.2000000), wk =   0.0040000
        k(  398) = (  -0.3000000  -0.1000000   0.4000000), wk =   0.0040000
        k(  399) = (  -0.3000000  -0.1000000  -0.4000000), wk =   0.0040000
        k(  400) = (  -0.3000000  -0.1000000  -0.2000000), wk =   0.0040000
        k(  401) = (  -0.2000000   0.0000000   0.0000000), wk =   0.0040000
        k(  402) = (  -0.2000000   0.0000000   0.2000000), wk =   0.0040000
        k(  403) = (  -0.2000000   0.0000000   0.4000000), wk =   0.0040000
        k(  404) = (  -0.2000000   0.0000000  -0.4000000), wk =   0.0040000
        k(  405) = (  -0.2000000   0.0000000  -0.2000000), wk =   0.0040000
        k(  406) = (  -0.2000000   0.1000000   0.0000000), wk =   0.0040000
        k(  407) = (  -0.2000000   0.1000000   0.2000000), wk =   0.0040000
        k(  408) = (  -0.2000000   0.1000000   0.4000000), wk =   0.0040000
        k(  409) = (  -0.2000000   0.1000000  -0.4000000), wk =   0.0040000
        k(  410) = (  -0.2000000   0.1000000  -0.2000000), wk =   0.0040000
        k(  411) = (  -0.2000000   0.2000000   0.0000000), wk =   0.0040000
        k(  412) = (  -0.2000000   0.2000000   0.2000000), wk =   0.0040000
        k(  413) = (  -0.2000000   0.2000000   0.4000000), wk =   0.0040000
        k(  414) = (  -0.2000000   0.2000000  -0.4000000), wk =   0.0040000
        k(  415) = (  -0.2000000   0.2000000  -0.2000000), wk =   0.0040000
        k(  416) = (  -0.2000000   0.3000000   0.0000000), wk =   0.0040000
        k(  417) = (  -0.2000000   0.3000000   0.2000000), wk =   0.0040000
        k(  418) = (  -0.2000000   0.3000000   0.4000000), wk =   0.0040000
        k(  419) = (  -0.2000000   0.3000000  -0.4000000), wk =   0.0040000
        k(  420) = (  -0.2000000   0.3000000  -0.2000000), wk =   0.0040000
        k(  421) = (  -0.2000000   0.4000000   0.0000000), wk =   0.0040000
        k(  422) = (  -0.2000000   0.4000000   0.2000000), wk =   0.0040000
        k(  423) = (  -0.2000000   0.4000000   0.4000000), wk =   0.0040000
        k(  424) = (  -0.2000000   0.4000000  -0.4000000), wk =   0.0040000
        k(  425) = (  -0.2000000   0.4000000  -0.2000000), wk =   0.0040000
        k(  426) = (  -0.2000000  -0.5000000   0.0000000), wk =   0.0040000
        k(  427) = (  -0.2000000  -0.5000000   0.2000000), wk =   0.0040000
        k(  428) = (  -0.2000000  -0.5000000   0.4000000), wk =   0.0040000
        k(  429) = (  -0.2000000  -0.5000000  -0.4000000), wk =   0.0040000
        k(  430) = (  -0.2000000  -0.5000000  -0.2000000), wk =   0.0040000
        k(  431) = (  -0.2000000  -0.4000000   0.0000000), wk =   0.0040000
        k(  432) = (  -0.2000000  -0.4000000   0.2000000), wk =   0.0040000
        k(  433) = (  -0.2000000  -0.4000000   0.4000000), wk =   0.0040000
        k(  434) = (  -0.2000000  -0.4000000  -0.4000000), wk =   0.0040000
        k(  435) = (  -0.2000000  -0.4000000  -0.2000000), wk =   0.0040000
        k(  436) = (  -0.2000000  -0.3000000   0.0000000), wk =   0.0040000
        k(  437) = (  -0.2000000  -0.3000000   0.2000000), wk =   0.0040000
        k(  438) = (  -0.2000000  -0.3000000   0.4000000), wk =   0.0040000
        k(  439) = (  -0.2000000  -0.3000000  -0.4000000), wk =   0.0040000
        k(  440) = (  -0.2000000  -0.3000000  -0.2000000), wk =   0.0040000
        k(  441) = (  -0.2000000  -0.2000000   0.0000000), wk =   0.0040000
        k(  442) = (  -0.2000000  -0.2000000   0.2000000), wk =   0.0040000
        k(  443) = (  -0.2000000  -0.2000000   0.4000000), wk =   0.0040000
        k(  444) = (  -0.2000000  -0.2000000  -0.4000000), wk =   0.0040000
        k(  445) = (  -0.2000000  -0.2000000  -0.2000000), wk =   0.0040000
        k(  446) = (  -0.2000000  -0.1000000   0.0000000), wk =   0.0040000
        k(  447) = (  -0.2000000  -0.1000000   0.2000000), wk =   0.0040000
        k(  448) = (  -0.2000000  -0.1000000   0.4000000), wk =   0.0040000
        k(  449) = (  -0.2000000  -0.1000000  -0.4000000), wk =   0.0040000
        k(  450) = (  -0.2000000  -0.1000000  -0.2000000), wk =   0.0040000
        k(  451) = (  -0.1000000  -0.0000000   0.0000000), wk =   0.0040000
        k(  452) = (  -0.1000000  -0.0000000   0.2000000), wk =   0.0040000
        k(  453) = (  -0.1000000  -0.0000000   0.4000000), wk =   0.0040000
        k(  454) = (  -0.1000000  -0.0000000  -0.4000000), wk =   0.0040000
        k(  455) = (  -0.1000000  -0.0000000  -0.2000000), wk =   0.0040000
        k(  456) = (  -0.1000000   0.1000000   0.0000000), wk =   0.0040000
        k(  457) = (  -0.1000000   0.1000000   0.2000000), wk =   0.0040000
        k(  458) = (  -0.1000000   0.1000000   0.4000000), wk =   0.0040000
        k(  459) = (  -0.1000000   0.1000000  -0.4000000), wk =   0.0040000
        k(  460) = (  -0.1000000   0.1000000  -0.2000000), wk =   0.0040000
        k(  461) = (  -0.1000000   0.2000000   0.0000000), wk =   0.0040000
        k(  462) = (  -0.1000000   0.2000000   0.2000000), wk =   0.0040000
        k(  463) = (  -0.1000000   0.2000000   0.4000000), wk =   0.0040000
        k(  464) = (  -0.1000000   0.2000000  -0.4000000), wk =   0.0040000
        k(  465) = (  -0.1000000   0.2000000  -0.2000000), wk =   0.0040000
        k(  466) = (  -0.1000000   0.3000000   0.0000000), wk =   0.0040000
        k(  467) = (  -0.1000000   0.3000000   0.2000000), wk =   0.0040000
        k(  468) = (  -0.1000000   0.3000000   0.4000000), wk =   0.0040000
        k(  469) = (  -0.1000000   0.3000000  -0.4000000), wk =   0.0040000
        k(  470) = (  -0.1000000   0.3000000  -0.2000000), wk =   0.0040000
        k(  471) = (  -0.1000000   0.4000000   0.0000000), wk =   0.0040000
        k(  472) = (  -0.1000000   0.4000000   0.2000000), wk =   0.0040000
        k(  473) = (  -0.1000000   0.4000000   0.4000000), wk =   0.0040000
        k(  474) = (  -0.1000000   0.4000000  -0.4000000), wk =   0.0040000
        k(  475) = (  -0.1000000   0.4000000  -0.2000000), wk =   0.0040000
        k(  476) = (  -0.1000000  -0.5000000   0.0000000), wk =   0.0040000
        k(  477) = (  -0.1000000  -0.5000000   0.2000000), wk =   0.0040000
        k(  478) = (  -0.1000000  -0.5000000   0.4000000), wk =   0.0040000
        k(  479) = (  -0.1000000  -0.5000000  -0.4000000), wk =   0.0040000
        k(  480) = (  -0.1000000  -0.5000000  -0.2000000), wk =   0.0040000
        k(  481) = (  -0.1000000  -0.4000000   0.0000000), wk =   0.0040000
        k(  482) = (  -0.1000000  -0.4000000   0.2000000), wk =   0.0040000
        k(  483) = (  -0.1000000  -0.4000000   0.4000000), wk =   0.0040000
        k(  484) = (  -0.1000000  -0.4000000  -0.4000000), wk =   0.0040000
        k(  485) = (  -0.1000000  -0.4000000  -0.2000000), wk =   0.0040000
        k(  486) = (  -0.1000000  -0.3000000   0.0000000), wk =   0.0040000
        k(  487) = (  -0.1000000  -0.3000000   0.2000000), wk =   0.0040000
        k(  488) = (  -0.1000000  -0.3000000   0.4000000), wk =   0.0040000
        k(  489) = (  -0.1000000  -0.3000000  -0.4000000), wk =   0.0040000
        k(  490) = (  -0.1000000  -0.3000000  -0.2000000), wk =   0.0040000
        k(  491) = (  -0.1000000  -0.2000000   0.0000000), wk =   0.0040000
        k(  492) = (  -0.1000000  -0.2000000   0.2000000), wk =   0.0040000
        k(  493) = (  -0.1000000  -0.2000000   0.4000000), wk =   0.0040000
[...]
      thresh= 4.819E-06 alpha_mix =  0.700 |ddv_scf|^2 =  2.277E-11

     Pert. #  1: Fermi energy shift (Ry) =    -1.6635E-06    -1.7572E-09

      iter #   4 total cpu time :   158.3 secs   av.it.:   9.7
      thresh= 4.771E-07 alpha_mix =  0.700 |ddv_scf|^2 =  6.049E-12

     Pert. #  1: Fermi energy shift (Ry) =    -9.1102E-07    -1.7341E-09

      iter #   5 total cpu time :   167.8 secs   av.it.:   9.4
      thresh= 2.459E-07 alpha_mix =  0.700 |ddv_scf|^2 =  6.972E-12

     Pert. #  1: Fermi energy shift (Ry) =    -3.0483E-07    -1.7401E-09

      iter #   6 total cpu time :   176.6 secs   av.it.:   8.6
      thresh= 2.640E-07 alpha_mix =  0.700 |ddv_scf|^2 =  1.511E-14

     End of self-consistent calculation

     Convergence has been achieved 


     Representation #   3 mode #   3

     Self-consistent Calculation

     Pert. #  1: Fermi energy shift (Ry) =     1.1716E-01    -6.6220E-09

      iter #   1 total cpu time :   187.5 secs   av.it.:   4.9
      thresh= 1.000E-02 alpha_mix =  0.700 |ddv_scf|^2 =  2.117E-06

     Pert. #  1: Fermi energy shift (Ry) =     6.9165E-02    -3.5886E-09

      iter #   2 total cpu time :   197.2 secs   av.it.:   9.4
      thresh= 1.455E-04 alpha_mix =  0.700 |ddv_scf|^2 =  6.574E-06

     Pert. #  1: Fermi energy shift (Ry) =     7.1538E-02    -7.4665E-09

      iter #   3 total cpu time :   207.4 secs   av.it.:   8.2
      thresh= 2.564E-04 alpha_mix =  0.700 |ddv_scf|^2 =  1.189E-08

     Pert. #  1: Fermi energy shift (Ry) =     7.3785E-02    -6.9939E-09

      iter #   4 total cpu time :   216.3 secs   av.it.:   8.8
      thresh= 1.090E-05 alpha_mix =  0.700 |ddv_scf|^2 =  2.337E-10

     Pert. #  1: Fermi energy shift (Ry) =     7.4955E-02    -7.0208E-09

      iter #   5 total cpu time :   225.6 secs   av.it.:   9.0
      thresh= 1.529E-06 alpha_mix =  0.700 |ddv_scf|^2 =  3.602E-12

     Pert. #  1: Fermi energy shift (Ry) =     7.4856E-02    -7.0433E-09

      iter #   6 total cpu time :   235.2 secs   av.it.:   9.6
      thresh= 1.898E-07 alpha_mix =  0.700 |ddv_scf|^2 =  4.344E-13

     End of self-consistent calculation

     Convergence has been achieved 


     Representation #   4 mode #   4

     Self-consistent Calculation

     Pert. #  1: Fermi energy shift (Ry) =    -3.6210E-06     3.0244E-09

      iter #   1 total cpu time :   244.8 secs   av.it.:   4.4
      thresh= 1.000E-02 alpha_mix =  0.700 |ddv_scf|^2 =  4.044E-08

     Pert. #  1: Fermi energy shift (Ry) =     5.7595E-08     7.8532E-09

      iter #   2 total cpu time :   257.4 secs   av.it.:   9.9
      thresh= 2.011E-05 alpha_mix =  0.700 |ddv_scf|^2 =  2.316E-09

     Pert. #  1: Fermi energy shift (Ry) =     3.2873E-08    -2.1955E-08

      iter #   3 total cpu time :   267.0 secs   av.it.:   9.8
      thresh= 4.812E-06 alpha_mix =  0.700 |ddv_scf|^2 =  2.144E-11

     Pert. #  1: Fermi energy shift (Ry) =     7.9911E-08     9.5247E-09

      iter #   4 total cpu time :   276.4 secs   av.it.:   9.6
      thresh= 4.630E-07 alpha_mix =  0.700 |ddv_scf|^2 =  1.552E-12

     Pert. #  1: Fermi energy shift (Ry) =     8.7038E-08     4.2109E-09

      iter #   5 total cpu time :   286.1 secs   av.it.:   9.5
      thresh= 1.246E-07 alpha_mix =  0.700 |ddv_scf|^2 =  4.458E-15

     End of self-consistent calculation

     Convergence has been achieved 


     Representation #   5 mode #   5

     Self-consistent Calculation

     Pert. #  1: Fermi energy shift (Ry) =    -1.9770E-04    -5.0690E-09

      iter #   1 total cpu time :   295.7 secs   av.it.:   4.4
      thresh= 1.000E-02 alpha_mix =  0.700 |ddv_scf|^2 =  4.046E-08

     Pert. #  1: Fermi energy shift (Ry) =    -8.6259E-05    -6.2810E-09

      iter #   2 total cpu time :   305.6 secs   av.it.:  10.0
      thresh= 2.012E-05 alpha_mix =  0.700 |ddv_scf|^2 =  2.322E-09

     Pert. #  1: Fermi energy shift (Ry) =    -9.1154E-06    -6.2397E-09

      iter #   3 total cpu time :   315.6 secs   av.it.:   9.8
      thresh= 4.819E-06 alpha_mix =  0.700 |ddv_scf|^2 =  2.277E-11

     Pert. #  1: Fermi energy shift (Ry) =     1.5940E-06    -6.2115E-09

      iter #   4 total cpu time :   325.1 secs   av.it.:   9.7
      thresh= 4.771E-07 alpha_mix =  0.700 |ddv_scf|^2 =  6.049E-12

     Pert. #  1: Fermi energy shift (Ry) =     8.3623E-07    -6.2205E-09

      iter #   5 total cpu time :   334.7 secs   av.it.:   9.4
      thresh= 2.459E-07 alpha_mix =  0.700 |ddv_scf|^2 =  6.972E-12

     Pert. #  1: Fermi energy shift (Ry) =     2.3326E-07    -6.2233E-09

      iter #   6 total cpu time :   344.4 secs   av.it.:   8.6
      thresh= 2.640E-07 alpha_mix =  0.700 |ddv_scf|^2 =  1.511E-14

     End of self-consistent calculation

     Convergence has been achieved 


     Representation #   6 mode #   6

     Self-consistent Calculation

     Pert. #  1: Fermi energy shift (Ry) =     1.1716E-01     5.5012E-09

      iter #   1 total cpu time :   354.0 secs   av.it.:   4.9
      thresh= 1.000E-02 alpha_mix =  0.700 |ddv_scf|^2 =  2.117E-06

     Pert. #  1: Fermi energy shift (Ry) =     6.9167E-02     1.0507E-09

      iter #   2 total cpu time :   363.2 secs   av.it.:   9.4
      thresh= 1.455E-04 alpha_mix =  0.700 |ddv_scf|^2 =  6.574E-06

     Pert. #  1: Fermi energy shift (Ry) =     7.1537E-02     5.0013E-09

      iter #   3 total cpu time :   371.8 secs   av.it.:   8.2
      thresh= 2.564E-04 alpha_mix =  0.700 |ddv_scf|^2 =  1.189E-08

     Pert. #  1: Fermi energy shift (Ry) =     7.3784E-02     4.5891E-09

      iter #   4 total cpu time :   381.1 secs   av.it.:   8.8
      thresh= 1.090E-05 alpha_mix =  0.700 |ddv_scf|^2 =  2.337E-10

     Pert. #  1: Fermi energy shift (Ry) =     7.4954E-02     4.6594E-09

      iter #   5 total cpu time :   390.2 secs   av.it.:   9.0
      thresh= 1.529E-06 alpha_mix =  0.700 |ddv_scf|^2 =  3.602E-12

     Pert. #  1: Fermi energy shift (Ry) =     7.4855E-02     4.6909E-09

      iter #   6 total cpu time :   399.8 secs   av.it.:   9.6
      thresh= 1.898E-07 alpha_mix =  0.700 |ddv_scf|^2 =  4.344E-13

     End of self-consistent calculation

     Convergence has been achieved 


     Representation #   7 mode #   7

     Self-consistent Calculation

     Pert. #  1: Fermi energy shift (Ry) =     3.6176E-06     1.1956E-08

      iter #   1 total cpu time :   409.5 secs   av.it.:   4.4
      thresh= 1.000E-02 alpha_mix =  0.700 |ddv_scf|^2 =  4.044E-08

     Pert. #  1: Fermi energy shift (Ry) =    -1.7001E-07     3.9191E-09

      iter #   2 total cpu time :   419.3 secs   av.it.:   9.9
      thresh= 2.011E-05 alpha_mix =  0.700 |ddv_scf|^2 =  2.316E-09

     Pert. #  1: Fermi energy shift (Ry) =    -1.6584E-07    -1.8827E-08

      iter #   3 total cpu time :   429.2 secs   av.it.:   9.8
      thresh= 4.812E-06 alpha_mix =  0.700 |ddv_scf|^2 =  2.144E-11

     Pert. #  1: Fermi energy shift (Ry) =    -8.2963E-08     8.3625E-09

      iter #   4 total cpu time :   445.1 secs   av.it.:   9.6
      thresh= 4.630E-07 alpha_mix =  0.700 |ddv_scf|^2 =  1.552E-12

     Pert. #  1: Fermi energy shift (Ry) =    -9.6074E-08     1.0945E-08

      iter #   5 total cpu time :   454.7 secs   av.it.:   9.6
      thresh= 1.246E-07 alpha_mix =  0.700 |ddv_scf|^2 =  4.459E-15

     End of self-consistent calculation

     Convergence has been achieved 


     Representation #   8 mode #   8

     Self-consistent Calculation

     Pert. #  1: Fermi energy shift (Ry) =     1.9764E-04    -1.9756E-10

      iter #   1 total cpu time :   475.7 secs   av.it.:   4.4
      thresh= 1.000E-02 alpha_mix =  0.700 |ddv_scf|^2 =  4.046E-08

     Pert. #  1: Fermi energy shift (Ry) =     8.6213E-05     2.8932E-09

      iter #   2 total cpu time :   485.7 secs   av.it.:  10.0
      thresh= 2.012E-05 alpha_mix =  0.700 |ddv_scf|^2 =  2.322E-09

     Pert. #  1: Fermi energy shift (Ry) =     9.0654E-06     1.5050E-09

      iter #   3 total cpu time :   496.1 secs   av.it.:   9.8
      thresh= 4.819E-06 alpha_mix =  0.700 |ddv_scf|^2 =  2.277E-11

     Pert. #  1: Fermi energy shift (Ry) =    -1.6400E-06     1.5961E-09

      iter #   4 total cpu time :   515.2 secs   av.it.:   9.7
      thresh= 4.771E-07 alpha_mix =  0.700 |ddv_scf|^2 =  6.049E-12

     Pert. #  1: Fermi energy shift (Ry) =    -8.8791E-07     1.5934E-09

      iter #   5 total cpu time :   525.8 secs   av.it.:   9.4
      thresh= 2.459E-07 alpha_mix =  0.700 |ddv_scf|^2 =  6.972E-12

     Pert. #  1: Fermi energy shift (Ry) =    -2.8170E-07     1.5918E-09

      iter #   6 total cpu time :   534.9 secs   av.it.:   8.6
      thresh= 2.640E-07 alpha_mix =  0.700 |ddv_scf|^2 =  1.511E-14

     End of self-consistent calculation

     Convergence has been achieved 


     Representation #   9 mode #   9

     Self-consistent Calculation

     Pert. #  1: Fermi energy shift (Ry) =    -1.1716E-01     8.8437E-09

      iter #   1 total cpu time :   544.8 secs   av.it.:   4.9
      thresh= 1.000E-02 alpha_mix =  0.700 |ddv_scf|^2 =  2.117E-06

     Pert. #  1: Fermi energy shift (Ry) =    -6.9164E-02     2.0296E-10

      iter #   2 total cpu time :   554.0 secs   av.it.:   9.4
      thresh= 1.455E-04 alpha_mix =  0.700 |ddv_scf|^2 =  6.574E-06

     Pert. #  1: Fermi energy shift (Ry) =    -7.1538E-02     5.6119E-09

      iter #   3 total cpu time :   563.1 secs   av.it.:   8.2
      thresh= 2.564E-04 alpha_mix =  0.700 |ddv_scf|^2 =  1.189E-08

     Pert. #  1: Fermi energy shift (Ry) =    -7.3785E-02     5.8840E-09

      iter #   4 total cpu time :   572.5 secs   av.it.:   8.8
      thresh= 1.090E-05 alpha_mix =  0.700 |ddv_scf|^2 =  2.337E-10

     Pert. #  1: Fermi energy shift (Ry) =    -7.4955E-02     5.8130E-09

      iter #   5 total cpu time :   586.5 secs   av.it.:   9.0
      thresh= 1.529E-06 alpha_mix =  0.700 |ddv_scf|^2 =  3.602E-12

     Pert. #  1: Fermi energy shift (Ry) =    -7.4856E-02     5.8339E-09

      iter #   6 total cpu time :   596.4 secs   av.it.:   9.6
      thresh= 1.898E-07 alpha_mix =  0.700 |ddv_scf|^2 =  4.344E-13

     End of self-consistent calculation

     Convergence has been achieved 


     Representation #  10 mode #  10

     Self-consistent Calculation

     Pert. #  1: Fermi energy shift (Ry) =    -3.7192E-06     1.3215E-09

      iter #   1 total cpu time :   606.1 secs   av.it.:   4.4
      thresh= 1.000E-02 alpha_mix =  0.700 |ddv_scf|^2 =  4.044E-08

     Pert. #  1: Fermi energy shift (Ry) =     8.0145E-08     2.0807E-08

      iter #   2 total cpu time :   619.9 secs   av.it.:   9.9
      thresh= 2.011E-05 alpha_mix =  0.700 |ddv_scf|^2 =  2.316E-09

     Pert. #  1: Fermi energy shift (Ry) =     2.6676E-08    -2.8720E-08

      iter #   3 total cpu time :   629.9 secs   av.it.:   9.8
      thresh= 4.812E-06 alpha_mix =  0.700 |ddv_scf|^2 =  2.144E-11

     Pert. #  1: Fermi energy shift (Ry) =     2.3641E-08     5.1340E-09

      iter #   4 total cpu time :   640.6 secs   av.it.:   9.6
      thresh= 4.630E-07 alpha_mix =  0.700 |ddv_scf|^2 =  1.552E-12

     Pert. #  1: Fermi energy shift (Ry) =     3.0826E-08     4.6076E-09

      iter #   5 total cpu time :   696.3 secs   av.it.:   9.6
      thresh= 1.246E-07 alpha_mix =  0.700 |ddv_scf|^2 =  4.461E-15

     End of self-consistent calculation

     Convergence has been achieved 


     Representation #  11 mode #  11

     Self-consistent Calculation

     Pert. #  1: Fermi energy shift (Ry) =    -1.9760E-04     9.0482E-09

      iter #   1 total cpu time :   706.8 secs   av.it.:   4.4
      thresh= 1.000E-02 alpha_mix =  0.700 |ddv_scf|^2 =  4.046E-08

     Pert. #  1: Fermi energy shift (Ry) =    -8.6181E-05     6.6564E-09

      iter #   2 total cpu time :   719.4 secs   av.it.:  10.0
      thresh= 2.012E-05 alpha_mix =  0.700 |ddv_scf|^2 =  2.322E-09

     Pert. #  1: Fermi energy shift (Ry) =    -9.0359E-06     7.6544E-09

      iter #   3 total cpu time :   729.9 secs   av.it.:   9.8
      thresh= 4.819E-06 alpha_mix =  0.700 |ddv_scf|^2 =  2.277E-11

     Pert. #  1: Fermi energy shift (Ry) =     1.6743E-06     7.7016E-09

      iter #   4 total cpu time :   748.5 secs   av.it.:   9.7
      thresh= 4.771E-07 alpha_mix =  0.700 |ddv_scf|^2 =  6.049E-12

     Pert. #  1: Fermi energy shift (Ry) =     9.1613E-07     7.7174E-09

      iter #   5 total cpu time :   758.4 secs   av.it.:   9.4
      thresh= 2.459E-07 alpha_mix =  0.700 |ddv_scf|^2 =  6.972E-12

     Pert. #  1: Fermi energy shift (Ry) =     3.1319E-07     7.7167E-09

      iter #   6 total cpu time :   843.2 secs   av.it.:   8.6
      thresh= 2.640E-07 alpha_mix =  0.700 |ddv_scf|^2 =  1.511E-14

     End of self-consistent calculation

     Convergence has been achieved 


     Representation #  12 mode #  12

     Self-consistent Calculation

     Pert. #  1: Fermi energy shift (Ry) =    -1.1716E-01    -1.4265E-08

      iter #   1 total cpu time :   853.9 secs   av.it.:   4.9
      thresh= 1.000E-02 alpha_mix =  0.700 |ddv_scf|^2 =  2.117E-06

     Pert. #  1: Fermi energy shift (Ry) =    -6.9167E-02    -5.3349E-09

      iter #   2 total cpu time :   898.0 secs   av.it.:   9.4
      thresh= 1.455E-04 alpha_mix =  0.700 |ddv_scf|^2 =  6.574E-06

     Pert. #  1: Fermi energy shift (Ry) =    -7.1537E-02    -1.0725E-08

      iter #   3 total cpu time :   962.2 secs   av.it.:   8.2
      thresh= 2.564E-04 alpha_mix =  0.700 |ddv_scf|^2 =  1.189E-08

     Pert. #  1: Fermi energy shift (Ry) =    -7.3784E-02    -1.1015E-08

      iter #   4 total cpu time :   972.8 secs   av.it.:   8.8
      thresh= 1.090E-05 alpha_mix =  0.700 |ddv_scf|^2 =  2.337E-10

     Pert. #  1: Fermi energy shift (Ry) =    -7.4954E-02    -1.0941E-08

      iter #   5 total cpu time :   983.2 secs   av.it.:   9.0
      thresh= 1.529E-06 alpha_mix =  0.700 |ddv_scf|^2 =  3.602E-12

     Pert. #  1: Fermi energy shift (Ry) =    -7.4855E-02    -1.0957E-08

      iter #   6 total cpu time :  1028.5 secs   av.it.:   9.6
      thresh= 1.898E-07 alpha_mix =  0.700 |ddv_scf|^2 =  4.344E-13

     End of self-consistent calculation

     Convergence has been achieved 

     Number of q in the star =    1
     List of q in the star:
          1   0.000000000   0.000000000   0.000000000

     Diagonalizing the dynamical matrix

     q = (    0.000000000   0.000000000   0.000000000 ) 

 **************************************************************************
     freq (    1) =       0.311767 [THz] =      10.399423 [cm-1]
     freq (    2) =       0.395969 [THz] =      13.208107 [cm-1]
     freq (    3) =       0.527897 [THz] =      17.608751 [cm-1]
     freq (    4) =       3.098685 [THz] =     103.361007 [cm-1]
     freq (    5) =       3.099489 [THz] =     103.387816 [cm-1]
     freq (    6) =      11.075606 [THz] =     369.442436 [cm-1]
     freq (    7) =      11.779660 [THz] =     392.927177 [cm-1]
     freq (    8) =      14.014302 [THz] =     467.466808 [cm-1]
     freq (    9) =      14.014498 [THz] =     467.473336 [cm-1]
     freq (   10) =      14.700619 [THz] =     490.359867 [cm-1]
     freq (   11) =      14.701127 [THz] =     490.376825 [cm-1]
     freq (   12) =      14.864614 [THz] =     495.830150 [cm-1]
 **************************************************************************

     Mode symmetry, C_1 (1)     point group:

     freq (   1-   1) =         10.4  [cm-1]   --> A               I+R
     freq (   2-   2) =         13.2  [cm-1]   --> A               I+R
     freq (   3-   3) =         17.6  [cm-1]   --> A               I+R
     freq (   4-   4) =        103.4  [cm-1]   --> A               I+R
     freq (   5-   5) =        103.4  [cm-1]   --> A               I+R
     freq (   6-   6) =        369.4  [cm-1]   --> A               I+R
     freq (   7-   7) =        392.9  [cm-1]   --> A               I+R
     freq (   8-   8) =        467.5  [cm-1]   --> A               I+R
     freq (   9-   9) =        467.5  [cm-1]   --> A               I+R
     freq (  10-  10) =        490.4  [cm-1]   --> A               I+R
     freq (  11-  11) =        490.4  [cm-1]   --> A               I+R
     freq (  12-  12) =        495.8  [cm-1]   --> A               I+R

     PHONON       :  16m22.50s CPU  17m25.62s WALL

     INITIALIZATION: 
     phq_setup    :      0.00s CPU      1.50s WALL (       1 calls)
     phq_init     :      0.60s CPU      0.62s WALL (       1 calls)

     phq_init     :      0.60s CPU      0.62s WALL (       1 calls)
     init_vloc    :      0.00s CPU      0.00s WALL (       1 calls)
     init_us_1    :      0.00s CPU      0.00s WALL (       1 calls)
     init_us_2    :      0.93s CPU      0.98s WALL (   59000 calls)

     DYNAMICAL MATRIX:
     dynmat0      :      0.38s CPU      0.39s WALL (       1 calls)
     dynmat_us    :      0.38s CPU      0.39s WALL (       1 calls)
     d2ionq       :      0.00s CPU      0.00s WALL (       1 calls)
     phqscf       :    964.63s CPU   1024.24s WALL (       1 calls)
     dynmatrix    :      0.00s CPU      0.05s WALL (       1 calls)

     phqscf       :    964.63s CPU   1024.24s WALL (       1 calls)
     solve_linter :    961.77s CPU   1020.79s WALL (      12 calls)
     sth_kernel   :    808.28s CPU    840.45s WALL (      68 calls)
     h_prec       :      1.19s CPU      1.22s WALL (   34000 calls)
     apply_dpot_b :     55.68s CPU     57.66s WALL (   34000 calls)
     ortho        :      3.41s CPU      3.51s WALL (   34000 calls)
     cgsolve      :    703.01s CPU    721.36s WALL (   34000 calls)
     incdrhoscf   :     55.72s CPU     57.71s WALL (   34000 calls)
                                        0.00s GPU  (   34000 calls)
     vpsifft      :     19.05s CPU     19.67s WALL (    6000 calls)
     dv_of_drho   :      0.02s CPU      0.03s WALL (      68 calls)
     mix_pot      :      4.56s CPU      7.12s WALL (      68 calls)
     ef_shift     :      0.03s CPU      0.04s WALL (      68 calls)
     ef_shift_wfc :      0.03s CPU      1.61s WALL (      12 calls)
     localdos     :      6.14s CPU      6.28s WALL (      12 calls)
     drhodv       :      2.85s CPU      2.98s WALL (      12 calls)

     dvqpsi_us    :     33.05s CPU     34.22s WALL (    6000 calls)
                                        0.00s GPU  (    6000 calls)
     dvqpsi_us_on :      0.59s CPU      0.61s WALL (    6000 calls)

     add_vuspsi   :      4.46s CPU      4.57s WALL (  366380 calls)


      Electron-phonon coupling
     elphel       :     23.91s CPU     24.96s WALL (      12 calls)

      General routines
     calbec       :     34.32s CPU     35.24s WALL (  767760 calls)
     fft          :      0.05s CPU      0.06s WALL (     344 calls)
     ffts         :     18.66s CPU     19.04s WALL (   54612 calls)
     fftw         :    750.63s CPU    771.52s WALL ( 6409820 calls)
     davcio       :      8.59s CPU     30.92s WALL (  185920 calls)
     write_rec    :      0.04s CPU     12.00s WALL (      80 calls)

      Additional routines
     ch_psi       :    689.31s CPU    707.25s WALL (  366380 calls)
     last         :     29.60s CPU     30.35s WALL (  366380 calls)
     Hesh         :      0.43s CPU      0.44s WALL (  366380 calls)
     ch_psi_all_k :     28.73s CPU     29.45s WALL (  366380 calls)
                                        0.00s GPU  (  366380 calls)
     ch_psi_calbe :     14.59s CPU     14.93s WALL (  366380 calls)
                                        0.00s GPU  (  366380 calls)
     h_psi_bgrp   :    658.67s CPU    675.85s WALL (  366380 calls)
     h_psi        :    658.41s CPU    675.58s WALL (  366380 calls)
     h_psi:pot    :    657.84s CPU    674.99s WALL (  366380 calls)
     h_psi:calbec :     16.79s CPU     17.17s WALL (  366380 calls)
     s_psi_bgrp   :      0.56s CPU      0.58s WALL (  766760 calls)


     PHONON       :  16m22.50s CPU  17m25.62s WALL


   This run was terminated on:  15:29:17   6Feb2026            

=------------------------------------------------------------------------------=
   JOB DONE.
=------------------------------------------------------------------------------=
