MPI startup(): I_MPI_ADI3_DISABLE environment variable is not supported.
MPI startup(): To check the list of supported variables, use the impi_info utility or refer to https://software.intel.com/en-us/mpi-library/documentation/get-started.

     Program PHONON v.7.2 starts on  9Jun2025 at 10:50:35 

     This program is part of the open-source Quantum ESPRESSO suite
     for quantum simulation of materials; please cite
         "P. Giannozzi et al., J. Phys.:Condens. Matter 21 395502 (2009);
         "P. Giannozzi et al., J. Phys.:Condens. Matter 29 465901 (2017);
         "P. Giannozzi et al., J. Chem. Phys. 152 154105 (2020);
          URL http://www.quantum-espresso.org", 
     in publications or presentations arising from this work. More details at
     http://www.quantum-espresso.org/quote

     Parallel version (MPI), running on    32 processors

     MPI processes distributed on     1 nodes
     1026217 MiB available memory on the printing compute node when the environment starts
 
     Waiting for input...
     Reading input from standard input
      Title line not specified: using 'default'.

     Reading xml data from directory:

     temp/hexsi.save/
 
     K-points division:     npool     =       2
     R & G space division:  proc/nbgrp/npool/nimage =      16
     Subspace diagonalization in iterative solution of the eigenvalue problem:
     a serial algorithm will be used


     IMPORTANT: XC functional enforced from input :
     Exchange-correlation= PZ
                           (   1   1   0   0   0   0   0)
     Any further DFT definition will be discarded
     Please, verify this is what you really want

 
     Parallelization info
     --------------------
     sticks:   dense  smooth     PW     G-vecs:    dense   smooth      PW
     Min          41      41     12                 1401     1401     222
     Max          42      42     13                 1409     1409     227
     Sum         661     661    199                22479    22479    3597
 
     Using Slab Decomposition
 
     Reading collected, re-writing distributed wavefunctions in temp/


     Dynamical matrices for ( 2, 2, 1)  uniform grid of q-points
     (   2 q-points):
       N         xq(1)         xq(2)         xq(3) 
       1   0.000000000   0.000000000   0.000000000
       2   0.000000000  -0.577350269   0.000000000

     Calculation of q =    0.0000000   0.0000000   0.0000000

     default                                                                    

     bravais-lattice index     =            0
     lattice parameter (alat)  =       7.2758  a.u.
     unit-cell volume          =     551.4347 (a.u.)^3
     number of atoms/cell      =            4
     number of atomic types    =            1
     kinetic-energy cut-off    =      45.0000  Ry
     charge density cut-off    =     180.0000  Ry
     convergence threshold     =      1.0E-10
     beta                      =       0.7000
     number of iterations used =            4
     Exchange-correlation= PZ
                           (   1   1   0   0   0   0   0)


     celldm(1)=    7.27578  celldm(2)=    0.00000  celldm(3)=    0.00000
     celldm(4)=    0.00000  celldm(5)=    0.00000  celldm(6)=    0.00000

     crystal axes: (cart. coord. in units of alat)
               a(1) = (  1.0000  0.0000  0.0000 )  
               a(2) = ( -0.5000  0.8660  0.0000 )  
               a(3) = (  0.0000  0.0000  1.6532 )  

     reciprocal axes: (cart. coord. in units 2 pi/alat)
               b(1) = (  1.0000  0.5774  0.0000 )  
               b(2) = (  0.0000  1.1547  0.0000 )  
               b(3) = (  0.0000  0.0000  0.6049 )  


     Atoms inside the unit cell: 

     Cartesian axes

     site n.  atom      mass           positions (alat units)
        1     Si  28.0855   tau(    1) = (   -0.00000    0.57735    0.10414  )
        2     Si  28.0855   tau(    2) = (    0.50000    0.28868    1.54905  )
        3     Si  28.0855   tau(    3) = (    0.50000    0.28868    0.93074  )
        4     Si  28.0855   tau(    4) = (    0.00000    0.57735    0.72246  )

     Computing dynamical matrix for 
                    q = (   0.0000000   0.0000000   0.0000000 )
 
     25 Sym.Ops. (with q -> -q+G )


     G cutoff =  241.3640  (   1409 G-vectors)     FFT grid: ( 32, 32, 54)
     number of k points=     8

     PseudoPot. # 1 for Si read from file:
     pseudo/Si.pz-rrkj.UPF
     MD5 check sum: 884b380b739b48e9cd334294cddc9a8d
     Pseudo is Norm-conserving, Zval =  4.0
     Generated using "atomic" code by A. Dal Corso (espresso distribution)
     Using radial grid of 1141 points,  2 beta functions with: 
                l(1) =   0
                l(2) =   1

     Mode symmetry, D_6h(6/mmm) point group:


     Electric field:
     Dielectric constant
     Born effective charges in two ways 


     Atomic displacements:
     There are    8 irreducible representations

     Representation     1      1 modes -  To be done

     Representation     2      1 modes -  To be done

     Representation     3      2 modes -  To be done

     Representation     4      2 modes -  To be done

     Representation     5      1 modes -  To be done

     Representation     6      1 modes -  To be done

     Representation     7      2 modes -  To be done

     Representation     8      2 modes -  To be done



     Alpha used in Ewald sum =   1.8000
     PHONON       :      0.06s CPU      0.12s WALL


     Electric Fields Calculation

      iter #   1 total cpu time :     0.3 secs   av.it.:   6.0
      thresh= 1.000E-02 alpha_mix =  0.700 |ddv_scf|^2 =  3.438E-07

      iter #   2 total cpu time :     0.4 secs   av.it.:   9.9
      thresh= 5.864E-05 alpha_mix =  0.700 |ddv_scf|^2 =  1.557E-08

      iter #   3 total cpu time :     0.5 secs   av.it.:   9.8
      thresh= 1.248E-05 alpha_mix =  0.700 |ddv_scf|^2 =  2.411E-10

      iter #   4 total cpu time :     0.6 secs   av.it.:   9.9
      thresh= 1.553E-06 alpha_mix =  0.700 |ddv_scf|^2 =  2.766E-11

     End of electric fields calculation

          Dielectric constant in cartesian axis 

          (      21.318760106       0.000000000      -0.000000000 )
          (       0.000000000      21.318760106      -0.000000000 )
          (       0.000000000       0.000000000      12.329714800 )

          Effective charges (d Force / dE) in cartesian axis without acoustic sum rule applied (asr)

           atom      1   Si Mean Z*:       -0.57964
      Ex  (       -0.95280        0.00000        0.00000 )
      Ey  (        0.00000       -0.95280        0.00000 )
      Ez  (        0.00000        0.00000        0.16669 )
           atom      2   Si Mean Z*:       -0.57964
      Ex  (       -0.95280        0.00000        0.00000 )
      Ey  (        0.00000       -0.95280        0.00000 )
      Ez  (       -0.00000        0.00000        0.16669 )
           atom      3   Si Mean Z*:       -0.57964
      Ex  (       -0.95280        0.00000        0.00000 )
      Ey  (        0.00000       -0.95280        0.00000 )
      Ez  (        0.00000        0.00000        0.16669 )
           atom      4   Si Mean Z*:       -0.57964
      Ex  (       -0.95280        0.00000       -0.00000 )
      Ey  (        0.00000       -0.95280       -0.00000 )
      Ez  (        0.00000       -0.00000        0.16669 )

          Effective charges Sum: Mean:       -2.31855
             -3.81121        0.00000        0.00000
              0.00000       -3.81121        0.00000
             -0.00000        0.00000        0.66676

          Effective charges (d Force / dE) in cartesian axis with asr applied: 
           atom      1   Si Mean Z*:        0.00000
      E*x (        0.00000       -0.00000        0.00000 )
      E*y (        0.00000        0.00000        0.00000 )
      E*z (        0.00000        0.00000        0.00000 )
           atom      2   Si Mean Z*:        0.00000
      E*x (        0.00000        0.00000        0.00000 )
      E*y (        0.00000        0.00000       -0.00000 )
      E*z (       -0.00000       -0.00000       -0.00000 )
           atom      3   Si Mean Z*:        0.00000
      E*x (        0.00000       -0.00000        0.00000 )
      E*y (        0.00000        0.00000        0.00000 )
      E*z (        0.00000        0.00000       -0.00000 )
           atom      4   Si Mean Z*:       -0.00000
      E*x (        0.00000        0.00000       -0.00000 )
      E*y (        0.00000       -0.00000       -0.00000 )
      E*z (        0.00000       -0.00000       -0.00000 )

     Calling punch_plot_e
     Writing on file  drho                                                                                                                                                                                                                                                            


     Representation #   1 mode #   1

     Self-consistent Calculation

      iter #   1 total cpu time :     0.7 secs   av.it.:   4.5
      thresh= 1.000E-02 alpha_mix =  0.700 |ddv_scf|^2 =  9.191E-08

      iter #   2 total cpu time :     0.7 secs   av.it.:   8.4
      thresh= 3.032E-05 alpha_mix =  0.700 |ddv_scf|^2 =  1.754E-09

      iter #   3 total cpu time :     0.8 secs   av.it.:   8.5
      thresh= 4.188E-06 alpha_mix =  0.700 |ddv_scf|^2 =  2.111E-11

     End of self-consistent calculation

     Convergence has been achieved 


     Representation #   2 mode #   2

     Self-consistent Calculation

      iter #   1 total cpu time :     0.8 secs   av.it.:   4.2
      thresh= 1.000E-02 alpha_mix =  0.700 |ddv_scf|^2 =  1.184E-06

      iter #   2 total cpu time :     0.8 secs   av.it.:   8.0
      thresh= 1.088E-04 alpha_mix =  0.700 |ddv_scf|^2 =  9.929E-07

      iter #   3 total cpu time :     0.9 secs   av.it.:   7.6
      thresh= 9.965E-05 alpha_mix =  0.700 |ddv_scf|^2 =  2.358E-10

      iter #   4 total cpu time :     0.9 secs   av.it.:   7.8
      thresh= 1.535E-06 alpha_mix =  0.700 |ddv_scf|^2 =  3.941E-12

     End of self-consistent calculation

     Convergence has been achieved 


     Representation #   3 modes #   3   4

     Self-consistent Calculation

      iter #   1 total cpu time :     1.0 secs   av.it.:   4.3
      thresh= 1.000E-02 alpha_mix =  0.700 |ddv_scf|^2 =  2.149E-08

      iter #   2 total cpu time :     1.0 secs   av.it.:   9.2
      thresh= 1.466E-05 alpha_mix =  0.700 |ddv_scf|^2 =  4.377E-10

      iter #   3 total cpu time :     1.1 secs   av.it.:   9.2
      thresh= 2.092E-06 alpha_mix =  0.700 |ddv_scf|^2 =  5.409E-12

     End of self-consistent calculation

     Convergence has been achieved 


     Representation #   4 modes #   5   6

     Self-consistent Calculation

      iter #   1 total cpu time :     1.2 secs   av.it.:   4.7
      thresh= 1.000E-02 alpha_mix =  0.700 |ddv_scf|^2 =  5.629E-08

      iter #   2 total cpu time :     1.2 secs   av.it.:   9.2
      thresh= 2.373E-05 alpha_mix =  0.700 |ddv_scf|^2 =  4.237E-09

      iter #   3 total cpu time :     1.3 secs   av.it.:   9.1
      thresh= 6.510E-06 alpha_mix =  0.700 |ddv_scf|^2 =  7.614E-12

     End of self-consistent calculation

     Convergence has been achieved 


     Representation #   5 mode #   7

     Self-consistent Calculation

      iter #   1 total cpu time :     1.3 secs   av.it.:   4.1
      thresh= 1.000E-02 alpha_mix =  0.700 |ddv_scf|^2 =  5.902E-08

      iter #   2 total cpu time :     1.4 secs   av.it.:   8.6
      thresh= 2.429E-05 alpha_mix =  0.700 |ddv_scf|^2 =  2.331E-09

      iter #   3 total cpu time :     1.4 secs   av.it.:   8.5
      thresh= 4.828E-06 alpha_mix =  0.700 |ddv_scf|^2 =  4.437E-11

     End of self-consistent calculation

     Convergence has been achieved 


     Representation #   6 mode #   8

     Self-consistent Calculation

      iter #   1 total cpu time :     1.5 secs   av.it.:   5.0
      thresh= 1.000E-02 alpha_mix =  0.700 |ddv_scf|^2 =  2.055E-05

      iter #   2 total cpu time :     1.5 secs   av.it.:   8.4
      thresh= 4.533E-04 alpha_mix =  0.700 |ddv_scf|^2 =  6.981E-05

      iter #   3 total cpu time :     1.5 secs   av.it.:   7.5
      thresh= 8.355E-04 alpha_mix =  0.700 |ddv_scf|^2 =  3.076E-09

      iter #   4 total cpu time :     1.6 secs   av.it.:   8.5
      thresh= 5.546E-06 alpha_mix =  0.700 |ddv_scf|^2 =  8.197E-11

     End of self-consistent calculation

     Convergence has been achieved 


     Representation #   7 modes #   9  10

     Self-consistent Calculation

      iter #   1 total cpu time :     1.6 secs   av.it.:   4.5
      thresh= 1.000E-02 alpha_mix =  0.700 |ddv_scf|^2 =  1.754E-08

      iter #   2 total cpu time :     1.7 secs   av.it.:   9.6
      thresh= 1.324E-05 alpha_mix =  0.700 |ddv_scf|^2 =  7.823E-10

      iter #   3 total cpu time :     1.8 secs   av.it.:   9.6
      thresh= 2.797E-06 alpha_mix =  0.700 |ddv_scf|^2 =  7.206E-12

     End of self-consistent calculation

     Convergence has been achieved 


     Representation #   8 modes #  11  12

     Self-consistent Calculation

      iter #   1 total cpu time :     1.8 secs   av.it.:   4.1
      thresh= 1.000E-02 alpha_mix =  0.700 |ddv_scf|^2 =  5.404E-09

      iter #   2 total cpu time :     1.9 secs   av.it.:   9.2
      thresh= 7.351E-06 alpha_mix =  0.700 |ddv_scf|^2 =  9.012E-11

     End of self-consistent calculation

     Convergence has been achieved 
 
     Number of q in the star =    1
     List of q in the star:
          1   0.000000000   0.000000000   0.000000000

          Dielectric constant in cartesian axis 

          (      21.318760106       0.000000000      -0.000000000 )
          (       0.000000000      21.318760106      -0.000000000 )
          (       0.000000000       0.000000000      12.329714800 )

          Effective charges (d Force / dE) in cartesian axis without acoustic sum rule applied (asr)

           atom      1   Si Mean Z*:       -0.57964
      Ex  (       -0.95280        0.00000        0.00000 )
      Ey  (        0.00000       -0.95280        0.00000 )
      Ez  (        0.00000        0.00000        0.16669 )
           atom      2   Si Mean Z*:       -0.57964
      Ex  (       -0.95280        0.00000        0.00000 )
      Ey  (        0.00000       -0.95280        0.00000 )
      Ez  (       -0.00000        0.00000        0.16669 )
           atom      3   Si Mean Z*:       -0.57964
      Ex  (       -0.95280        0.00000        0.00000 )
      Ey  (        0.00000       -0.95280        0.00000 )
      Ez  (        0.00000        0.00000        0.16669 )
           atom      4   Si Mean Z*:       -0.57964
      Ex  (       -0.95280        0.00000       -0.00000 )
      Ey  (        0.00000       -0.95280       -0.00000 )
      Ez  (        0.00000       -0.00000        0.16669 )

          Effective charges Sum: Mean:       -2.31855
             -3.81121        0.00000        0.00000
              0.00000       -3.81121        0.00000
             -0.00000        0.00000        0.66676

          Effective charges (d Force / dE) in cartesian axis with asr applied: 
           atom      1   Si Mean Z*:        0.00000
      E*x (        0.00000       -0.00000        0.00000 )
      E*y (        0.00000        0.00000        0.00000 )
      E*z (        0.00000        0.00000        0.00000 )
           atom      2   Si Mean Z*:        0.00000
      E*x (        0.00000        0.00000        0.00000 )
      E*y (        0.00000        0.00000       -0.00000 )
      E*z (       -0.00000       -0.00000       -0.00000 )
           atom      3   Si Mean Z*:        0.00000
      E*x (        0.00000       -0.00000        0.00000 )
      E*y (        0.00000        0.00000        0.00000 )
      E*z (        0.00000        0.00000       -0.00000 )
           atom      4   Si Mean Z*:       -0.00000
      E*x (        0.00000        0.00000       -0.00000 )
      E*y (        0.00000       -0.00000       -0.00000 )
      E*z (        0.00000       -0.00000       -0.00000 )

          Effective charges (d P / du) in cartesian axis 

           atom      1   Si 
      Px  (       -0.97483        0.00000        0.00000 )
      Py  (        0.00000       -0.97483       -0.00000 )
      Pz  (        0.00000        0.00000        0.14933 )
           atom      2   Si 
      Px  (       -0.97483        0.00000        0.00000 )
      Py  (        0.00000       -0.97483        0.00000 )
      Pz  (        0.00000       -0.00000        0.14933 )
           atom      3   Si 
      Px  (       -0.97483        0.00000       -0.00000 )
      Py  (        0.00000       -0.97483       -0.00000 )
      Pz  (        0.00000        0.00000        0.14933 )
           atom      4   Si 
      Px  (       -0.97483        0.00000        0.00000 )
      Py  (        0.00000       -0.97483        0.00000 )
      Pz  (        0.00000        0.00000        0.14933 )

     Diagonalizing the dynamical matrix

     q = (    0.000000000   0.000000000   0.000000000 ) 

 **************************************************************************
     freq (    1) =       0.966720 [THz] =      32.246307 [cm-1]
     freq (    2) =       0.973116 [THz] =      32.459661 [cm-1]
     freq (    3) =       0.973116 [THz] =      32.459661 [cm-1]
     freq (    4) =       4.392547 [THz] =     146.519611 [cm-1]
     freq (    5) =       4.392547 [THz] =     146.519611 [cm-1]
     freq (    6) =      11.108091 [THz] =     370.526017 [cm-1]
     freq (    7) =      11.768785 [THz] =     392.564412 [cm-1]
     freq (    8) =      14.185535 [THz] =     473.178499 [cm-1]
     freq (    9) =      14.185535 [THz] =     473.178499 [cm-1]
     freq (   10) =      14.714750 [THz] =     490.831230 [cm-1]
     freq (   11) =      14.801671 [THz] =     493.730616 [cm-1]
     freq (   12) =      14.801671 [THz] =     493.730616 [cm-1]
 **************************************************************************

     Mode symmetry, D_6h(6/mmm) point group:

     freq (   1-   1) =         32.2  [cm-1]   --> A_2u            I  
     freq (   2-   3) =         32.5  [cm-1]   --> E_1u            I  
     freq (   4-   5) =        146.5  [cm-1]   --> E_2u               
     freq (   6-   6) =        370.5  [cm-1]   --> B_1g               
     freq (   7-   7) =        392.6  [cm-1]   --> B_2u               
     freq (   8-   9) =        473.2  [cm-1]   --> E_2g            R  
     freq (  10-  10) =        490.8  [cm-1]   --> A_1g            R  
     freq (  11-  12) =        493.7  [cm-1]   --> E_1g            R  
 
     Number of q in the star =    1
     List of q in the star:
          1   0.000000000   0.000000000   0.000000000
       Writing drho for q = (  0.000000  0.000000  0.000000) on file "drho.0_0_0"

     Calculation of q =    0.0000000  -0.5773503   0.0000000
 
     Parallelization info
     --------------------
     sticks:   dense  smooth     PW     G-vecs:    dense   smooth      PW
     Min          41      41     13                 1401     1401     265
     Max          42      42     14                 1409     1409     272
     Sum         661     661    211                22479    22479    4283
 
     Using Slab Decomposition
 

     Title: 
     default                                                                    


     bravais-lattice index     =            0
     lattice parameter (alat)  =       7.2758  a.u.
     unit-cell volume          =     551.4347 (a.u.)^3
     number of atoms/cell      =            4
     number of atomic types    =            1
     number of electrons       =        16.00
     number of Kohn-Sham states=           16
     kinetic-energy cutoff     =      45.0000  Ry
     charge density cutoff     =     180.0000  Ry
     Exchange-correlation= PZ
                           (   1   1   0   0   0   0   0)

     celldm(1)=   7.275784  celldm(2)=   0.000000  celldm(3)=   0.000000
     celldm(4)=   0.000000  celldm(5)=   0.000000  celldm(6)=   0.000000

     crystal axes: (cart. coord. in units of alat)
               a(1) = (   1.000000   0.000000   0.000000 )  
               a(2) = (  -0.500000   0.866025   0.000000 )  
               a(3) = (   0.000000   0.000000   1.653195 )  

     reciprocal axes: (cart. coord. in units 2 pi/alat)
               b(1) = (  1.000000  0.577350  0.000000 )  
               b(2) = (  0.000000  1.154701  0.000000 )  
               b(3) = (  0.000000  0.000000  0.604889 )  


     PseudoPot. # 1 for Si read from file:
     pseudo/Si.pz-rrkj.UPF
     MD5 check sum: 884b380b739b48e9cd334294cddc9a8d
     Pseudo is Norm-conserving, Zval =  4.0
     Generated using "atomic" code by A. Dal Corso (espresso distribution)
     Using radial grid of 1141 points,  2 beta functions with: 
                l(1) =   0
                l(2) =   1

     atomic species   valence    mass     pseudopotential
        Si             4.00    28.08550     Si( 1.00)

     24 Sym. Ops., with inversion, found



   Cartesian axes

     site n.     atom                  positions (alat units)
         1           Si  tau(   1) = (  -0.0000000   0.5773503   0.1041405  )
         2           Si  tau(   2) = (   0.5000000   0.2886751   1.5490542  )
         3           Si  tau(   3) = (   0.5000000   0.2886751   0.9307379  )
         4           Si  tau(   4) = (   0.0000000   0.5773503   0.7224568  )

     number of k points=    28
                       cart. coord. in units 2pi/alat
        k(    1) = (   0.0000000   0.0000000   0.0000000), wk =   0.0625000
        k(    2) = (   0.0000000  -0.5773503   0.0000000), wk =   0.0000000
        k(    3) = (   0.0000000   0.0000000  -0.3024447), wk =   0.0625000
        k(    4) = (   0.0000000  -0.5773503  -0.3024447), wk =   0.0000000
        k(    5) = (   0.0000000   0.2886751   0.0000000), wk =   0.1250000
        k(    6) = (   0.0000000  -0.2886751   0.0000000), wk =   0.0000000
        k(    7) = (   0.0000000   0.2886751  -0.3024447), wk =   0.1250000
        k(    8) = (   0.0000000  -0.2886751  -0.3024447), wk =   0.0000000
        k(    9) = (   0.0000000  -0.5773503   0.0000000), wk =   0.0625000
        k(   10) = (   0.0000000  -1.1547005   0.0000000), wk =   0.0000000
        k(   11) = (   0.0000000  -0.5773503  -0.3024447), wk =   0.0625000
        k(   12) = (   0.0000000  -1.1547005  -0.3024447), wk =   0.0000000
        k(   13) = (   0.2500000   0.4330127   0.0000000), wk =   0.2500000
        k(   14) = (   0.2500000  -0.1443376   0.0000000), wk =   0.0000000
        k(   15) = (   0.2500000   0.4330127  -0.3024447), wk =   0.2500000
        k(   16) = (   0.2500000  -0.1443376  -0.3024447), wk =   0.0000000
        k(   17) = (  -0.2500000  -0.1443376   0.0000000), wk =   0.2500000
        k(   18) = (  -0.2500000  -0.7216878   0.0000000), wk =   0.0000000
        k(   19) = (  -0.2500000  -0.1443376   0.3024447), wk =   0.2500000
        k(   20) = (  -0.2500000  -0.7216878   0.3024447), wk =   0.0000000
        k(   21) = (   0.5000000   0.2886751   0.0000000), wk =   0.1250000
        k(   22) = (   0.5000000  -0.2886751   0.0000000), wk =   0.0000000
        k(   23) = (   0.5000000   0.2886751   0.3024447), wk =   0.1250000
        k(   24) = (   0.5000000  -0.2886751   0.3024447), wk =   0.0000000
        k(   25) = (   0.5000000   0.0000000   0.0000000), wk =   0.1250000
        k(   26) = (   0.5000000  -0.5773503   0.0000000), wk =   0.0000000
        k(   27) = (   0.5000000   0.0000000   0.3024447), wk =   0.1250000
        k(   28) = (   0.5000000  -0.5773503   0.3024447), wk =   0.0000000

     Dense  grid:    22479 G-vectors     FFT dimensions: (  32,  32,  54)

     Estimated max dynamical RAM per process >       1.19 MB

     Estimated total dynamical RAM >      38.07 MB

     The potential is recalculated from file :
     temp/_ph0/hexsi.save/charge-density

     Starting wfcs are   16 atomic wfcs

     Band Structure Calculation
     Davidson diagonalization with overlap

     ethr =  6.25E-11,  avg # of iterations = 17.1

     total cpu time spent up to now is        0.2 secs

     End of band structure calculation

          k = 0.0000 0.0000 0.0000 (  2791 PWs)   bands (ev):

    -5.9958  -3.7456  -1.0706   4.6009   4.6009   5.7423   6.0881   6.0881
     6.9665   8.0796   8.0796   8.3371   9.2689  10.2288  10.2288  12.0376

          k = 0.0000-0.5774 0.0000 (  2818 PWs)   bands (ev):

    -3.8402  -2.2868  -1.4993   0.1455   1.4821   3.0854   3.1351   4.6754
     6.4417   8.3275   9.0078   9.1932  10.3933  11.9927  12.4734  14.0784

          k = 0.0000 0.0000-0.3024 (  2810 PWs)   bands (ev):

    -5.2185  -5.2185   1.8717   1.8717   5.1821   5.1821   5.1821   5.1821
     7.7475   7.7475   9.0482   9.0482   9.0482   9.0482  12.5781  12.5781

          k = 0.0000-0.5774-0.3024 (  2808 PWs)   bands (ev):

    -3.1560  -3.1560  -1.1180  -1.1180   3.6626   3.6626   3.7114   3.7114
     6.8988   6.8988   7.7254   7.7254  11.6562  11.6562  13.8532  13.8532

          k = 0.0000 0.2887 0.0000 (  2795 PWs)   bands (ev):

    -5.2907  -3.0243  -0.8994   1.7129   2.9194   3.6708   4.7098   5.2332
     7.0567   8.9441   9.0749   9.2385   9.6172  11.1092  12.1365  12.4583

          k = 0.0000-0.2887 0.0000 (  2795 PWs)   bands (ev):

    -5.2907  -3.0243  -0.8994   1.7129   2.9194   3.6708   4.7098   5.2332
     7.0567   8.9441   9.0749   9.2385   9.6172  11.1092  12.1365  12.4583

          k = 0.0000 0.2887-0.3024 (  2808 PWs)   bands (ev):

    -4.5214  -4.5214   1.1824   1.1824   3.2164   3.2164   4.2859   4.2859
     7.5409   7.5409   9.5428   9.5428  10.9169  10.9169  12.0266  12.0266

          k = 0.0000-0.2887-0.3024 (  2808 PWs)   bands (ev):

    -4.5214  -4.5214   1.1824   1.1824   3.2164   3.2164   4.2859   4.2859
     7.5409   7.5409   9.5428   9.5428  10.9169  10.9169  12.0266  12.0266

          k = 0.0000-0.5774 0.0000 (  2818 PWs)   bands (ev):

    -3.8402  -2.2868  -1.4993   0.1455   1.4821   3.0854   3.1351   4.6754
     6.4417   8.3275   9.0078   9.1932  10.3933  11.9927  12.4734  14.0784

          k = 0.0000-1.1547 0.0000 (  2791 PWs)   bands (ev):

    -5.9958  -3.7456  -1.0706   4.6009   4.6009   5.7423   6.0881   6.0881
     6.9665   8.0796   8.0796   8.3371   9.2689  10.2288  10.2288  12.0376

          k = 0.0000-0.5774-0.3024 (  2808 PWs)   bands (ev):

    -3.1560  -3.1560  -1.1180  -1.1180   3.6626   3.6626   3.7114   3.7114
     6.8988   6.8988   7.7254   7.7254  11.6562  11.6562  13.8532  13.8532

          k = 0.0000-1.1547-0.3024 (  2810 PWs)   bands (ev):

    -5.2185  -5.2185   1.8717   1.8717   5.1821   5.1821   5.1821   5.1821
     7.7475   7.7475   9.0482   9.0482   9.0482   9.0482  12.5781  12.5781

          k = 0.2500 0.4330 0.0000 (  2830 PWs)   bands (ev):

    -4.0004  -1.8200  -1.6798   0.8034   1.5225   1.7385   3.3665   3.5039
     7.4112   9.7932  10.2088  10.2333  10.8507  11.6748  12.0076  12.5150

          k = 0.2500-0.1443 0.0000 (  2795 PWs)   bands (ev):

    -5.2907  -3.0243  -0.8994   1.7129   2.9194   3.6708   4.7098   5.2332
     7.0567   8.9441   9.0749   9.2385   9.6172  11.1092  12.1365  12.4583

          k = 0.2500 0.4330-0.3024 (  2804 PWs)   bands (ev):

    -3.2862  -3.2862  -0.5648  -0.5648   2.2417   2.2417   3.8500   3.8500
     7.8244   7.8244  10.0721  10.0721  10.5165  10.5165  11.3480  11.3480

          k = 0.2500-0.1443-0.3024 (  2808 PWs)   bands (ev):

    -4.5214  -4.5214   1.1824   1.1824   3.2164   3.2164   4.2859   4.2859
     7.5409   7.5409   9.5428   9.5428  10.9169  10.9169  12.0266  12.0266

          k =-0.2500-0.1443 0.0000 (  2795 PWs)   bands (ev):

    -5.2907  -3.0243  -0.8994   1.7129   2.9194   3.6708   4.7098   5.2332
     7.0567   8.9441   9.0749   9.2385   9.6172  11.1092  12.1365  12.4583

          k =-0.2500-0.7217 0.0000 (  2830 PWs)   bands (ev):

    -4.0004  -1.8200  -1.6798   0.8034   1.5225   1.7385   3.3665   3.5039
     7.4112   9.7932  10.2088  10.2333  10.8507  11.6748  12.0076  12.5150

          k =-0.2500-0.1443 0.3024 (  2808 PWs)   bands (ev):

    -4.5214  -4.5214   1.1824   1.1824   3.2164   3.2164   4.2859   4.2859
     7.5409   7.5409   9.5428   9.5428  10.9169  10.9169  12.0266  12.0266

          k =-0.2500-0.7217 0.3024 (  2804 PWs)   bands (ev):

    -3.2862  -3.2862  -0.5648  -0.5648   2.2417   2.2417   3.8500   3.8500
     7.8244   7.8244  10.0721  10.0721  10.5165  10.5165  11.3480  11.3480

          k = 0.5000 0.2887 0.0000 (  2818 PWs)   bands (ev):

    -3.8402  -2.2868  -1.4993   0.1455   1.4821   3.0854   3.1351   4.6754
     6.4417   8.3275   9.0078   9.1932  10.3933  11.9927  12.4734  14.0784

          k = 0.5000-0.2887 0.0000 (  2818 PWs)   bands (ev):

    -3.8402  -2.2868  -1.4993   0.1455   1.4821   3.0854   3.1351   4.6754
     6.4417   8.3275   9.0078   9.1932  10.3933  11.9927  12.4734  14.0784

          k = 0.5000 0.2887 0.3024 (  2808 PWs)   bands (ev):

    -3.1560  -3.1560  -1.1180  -1.1180   3.6626   3.6626   3.7114   3.7114
     6.8988   6.8988   7.7254   7.7254  11.6562  11.6562  13.8532  13.8532

          k = 0.5000-0.2887 0.3024 (  2808 PWs)   bands (ev):

    -3.1560  -3.1560  -1.1180  -1.1180   3.6626   3.6626   3.7114   3.7114
     6.8988   6.8988   7.7254   7.7254  11.6562  11.6562  13.8532  13.8532

          k = 0.5000 0.0000 0.0000 (  2830 PWs)   bands (ev):

    -4.0004  -1.8200  -1.6798   0.8034   1.5225   1.7385   3.3665   3.5039
     7.4112   9.7932  10.2088  10.2333  10.8507  11.6748  12.0076  12.5150

          k = 0.5000-0.5774 0.0000 (  2830 PWs)   bands (ev):

    -4.0004  -1.8200  -1.6798   0.8034   1.5225   1.7385   3.3665   3.5039
     7.4112   9.7932  10.2088  10.2333  10.8507  11.6748  12.0076  12.5150

          k = 0.5000 0.0000 0.3024 (  2804 PWs)   bands (ev):

    -3.2862  -3.2862  -0.5648  -0.5648   2.2417   2.2417   3.8500   3.8500
     7.8244   7.8244  10.0721  10.0721  10.5165  10.5165  11.3480  11.3480

          k = 0.5000-0.5774 0.3024 (  2804 PWs)   bands (ev):

    -3.2862  -3.2862  -0.5648  -0.5648   2.2417   2.2417   3.8500   3.8500
     7.8244   7.8244  10.0721  10.0721  10.5165  10.5165  11.3480  11.3480

     highest occupied, lowest unoccupied level (ev):     6.0881    6.4417

     Writing config to output data dir temp/_ph0/hexsi.save/

     default                                                                    

     bravais-lattice index     =            0
     lattice parameter (alat)  =       7.2758  a.u.
     unit-cell volume          =     551.4347 (a.u.)^3
     number of atoms/cell      =            4
     number of atomic types    =            1
     kinetic-energy cut-off    =      45.0000  Ry
     charge density cut-off    =     180.0000  Ry
     convergence threshold     =      1.0E-10
     beta                      =       0.7000
     number of iterations used =            4
     Exchange-correlation= PZ
                           (   1   1   0   0   0   0   0)


     celldm(1)=    7.27578  celldm(2)=    0.00000  celldm(3)=    0.00000
     celldm(4)=    0.00000  celldm(5)=    0.00000  celldm(6)=    0.00000

     crystal axes: (cart. coord. in units of alat)
               a(1) = (  1.0000  0.0000  0.0000 )  
               a(2) = ( -0.5000  0.8660  0.0000 )  
               a(3) = (  0.0000  0.0000  1.6532 )  

     reciprocal axes: (cart. coord. in units 2 pi/alat)
               b(1) = (  1.0000  0.5774  0.0000 )  
               b(2) = (  0.0000  1.1547  0.0000 )  
               b(3) = (  0.0000  0.0000  0.6049 )  


     Atoms inside the unit cell: 

     Cartesian axes

     site n.  atom      mass           positions (alat units)
        1     Si  28.0855   tau(    1) = (   -0.00000    0.57735    0.10414  )
        2     Si  28.0855   tau(    2) = (    0.50000    0.28868    1.54905  )
        3     Si  28.0855   tau(    3) = (    0.50000    0.28868    0.93074  )
        4     Si  28.0855   tau(    4) = (    0.00000    0.57735    0.72246  )

     Computing dynamical matrix for 
                    q = (   0.0000000  -0.5773503   0.0000000 )
 
      9 Sym.Ops. (with q -> -q+G )


     G cutoff =  241.3640  (   1409 G-vectors)     FFT grid: ( 32, 32, 54)
     number of k points=    28

     PseudoPot. # 1 for Si read from file:
     pseudo/Si.pz-rrkj.UPF
     MD5 check sum: 884b380b739b48e9cd334294cddc9a8d
     Pseudo is Norm-conserving, Zval =  4.0
     Generated using "atomic" code by A. Dal Corso (espresso distribution)
     Using radial grid of 1141 points,  2 beta functions with: 
                l(1) =   0
                l(2) =   1

     Mode symmetry, D_2h (mmm)  point group:


     Atomic displacements:
     There are   12 irreducible representations

     Representation     1      1 modes -  To be done

     Representation     2      1 modes -  To be done

     Representation     3      1 modes -  To be done

     Representation     4      1 modes -  To be done

     Representation     5      1 modes -  To be done

     Representation     6      1 modes -  To be done

     Representation     7      1 modes -  To be done

     Representation     8      1 modes -  To be done

     Representation     9      1 modes -  To be done

     Representation    10      1 modes -  To be done

     Representation    11      1 modes -  To be done

     Representation    12      1 modes -  To be done



     Alpha used in Ewald sum =   1.8000
     PHONON       :      1.91s CPU      2.19s WALL



     Representation #   1 mode #   1

     Self-consistent Calculation

      iter #   1 total cpu time :     2.2 secs   av.it.:   5.2
      thresh= 1.000E-02 alpha_mix =  0.700 |ddv_scf|^2 =  2.646E-06

      iter #   2 total cpu time :     2.3 secs   av.it.:   9.3
      thresh= 1.627E-04 alpha_mix =  0.700 |ddv_scf|^2 =  5.508E-06

      iter #   3 total cpu time :     2.3 secs   av.it.:   8.4
      thresh= 2.347E-04 alpha_mix =  0.700 |ddv_scf|^2 =  3.099E-07

      iter #   4 total cpu time :     2.3 secs   av.it.:   8.3
      thresh= 5.567E-05 alpha_mix =  0.700 |ddv_scf|^2 =  2.950E-10

      iter #   5 total cpu time :     2.4 secs   av.it.:   9.1
      thresh= 1.718E-06 alpha_mix =  0.700 |ddv_scf|^2 =  8.858E-12

     End of self-consistent calculation

     Convergence has been achieved 


     Representation #   2 mode #   2

     Self-consistent Calculation

      iter #   1 total cpu time :     2.4 secs   av.it.:   5.6
      thresh= 1.000E-02 alpha_mix =  0.700 |ddv_scf|^2 =  2.316E-05

      iter #   2 total cpu time :     2.5 secs   av.it.:   9.0
      thresh= 4.812E-04 alpha_mix =  0.700 |ddv_scf|^2 =  9.170E-05

      iter #   3 total cpu time :     2.5 secs   av.it.:   8.1
      thresh= 9.576E-04 alpha_mix =  0.700 |ddv_scf|^2 =  6.948E-08

      iter #   4 total cpu time :     2.5 secs   av.it.:   9.0
      thresh= 2.636E-05 alpha_mix =  0.700 |ddv_scf|^2 =  3.052E-10

      iter #   5 total cpu time :     2.6 secs   av.it.:   9.0
      thresh= 1.747E-06 alpha_mix =  0.700 |ddv_scf|^2 =  6.834E-12

     End of self-consistent calculation

     Convergence has been achieved 


     Representation #   3 mode #   3

     Self-consistent Calculation

      iter #   1 total cpu time :     2.6 secs   av.it.:   4.1
      thresh= 1.000E-02 alpha_mix =  0.700 |ddv_scf|^2 =  2.786E-08

      iter #   2 total cpu time :     2.7 secs   av.it.:   8.9
      thresh= 1.669E-05 alpha_mix =  0.700 |ddv_scf|^2 =  5.729E-10

      iter #   3 total cpu time :     2.7 secs   av.it.:   8.9
      thresh= 2.393E-06 alpha_mix =  0.700 |ddv_scf|^2 =  2.193E-11

     End of self-consistent calculation

     Convergence has been achieved 


     Representation #   4 mode #   4

     Self-consistent Calculation

      iter #   1 total cpu time :     2.8 secs   av.it.:   5.0
      thresh= 1.000E-02 alpha_mix =  0.700 |ddv_scf|^2 =  1.548E-06

      iter #   2 total cpu time :     2.8 secs   av.it.:   9.1
      thresh= 1.244E-04 alpha_mix =  0.700 |ddv_scf|^2 =  1.549E-06

      iter #   3 total cpu time :     2.8 secs   av.it.:   8.6
      thresh= 1.245E-04 alpha_mix =  0.700 |ddv_scf|^2 =  5.105E-10

      iter #   4 total cpu time :     2.9 secs   av.it.:   9.1
      thresh= 2.259E-06 alpha_mix =  0.700 |ddv_scf|^2 =  1.500E-11

     End of self-consistent calculation

     Convergence has been achieved 


     Representation #   5 mode #   5

     Self-consistent Calculation

      iter #   1 total cpu time :     2.9 secs   av.it.:   4.9
      thresh= 1.000E-02 alpha_mix =  0.700 |ddv_scf|^2 =  6.802E-07

      iter #   2 total cpu time :     3.0 secs   av.it.:   9.2
      thresh= 8.247E-05 alpha_mix =  0.700 |ddv_scf|^2 =  6.439E-07

      iter #   3 total cpu time :     3.0 secs   av.it.:   8.6
      thresh= 8.024E-05 alpha_mix =  0.700 |ddv_scf|^2 =  6.810E-10

      iter #   4 total cpu time :     3.1 secs   av.it.:   9.1
      thresh= 2.610E-06 alpha_mix =  0.700 |ddv_scf|^2 =  1.469E-11

     End of self-consistent calculation

     Convergence has been achieved 


     Representation #   6 mode #   6

     Self-consistent Calculation

      iter #   1 total cpu time :     3.1 secs   av.it.:   4.0
      thresh= 1.000E-02 alpha_mix =  0.700 |ddv_scf|^2 =  3.256E-09

      iter #   2 total cpu time :     3.1 secs   av.it.:   8.6
      thresh= 5.706E-06 alpha_mix =  0.700 |ddv_scf|^2 =  1.513E-10

      iter #   3 total cpu time :     3.2 secs   av.it.:   8.4
      thresh= 1.230E-06 alpha_mix =  0.700 |ddv_scf|^2 =  5.709E-12

     End of self-consistent calculation

     Convergence has been achieved 


     Representation #   7 mode #   7

     Self-consistent Calculation

      iter #   1 total cpu time :     3.2 secs   av.it.:   4.6
      thresh= 1.000E-02 alpha_mix =  0.700 |ddv_scf|^2 =  2.529E-07

      iter #   2 total cpu time :     3.2 secs   av.it.:   8.6
      thresh= 5.028E-05 alpha_mix =  0.700 |ddv_scf|^2 =  2.548E-08

      iter #   3 total cpu time :     3.3 secs   av.it.:   8.6
      thresh= 1.596E-05 alpha_mix =  0.700 |ddv_scf|^2 =  3.295E-11

     End of self-consistent calculation

     Convergence has been achieved 


     Representation #   8 mode #   8

     Self-consistent Calculation

      iter #   1 total cpu time :     3.3 secs   av.it.:   4.4
      thresh= 1.000E-02 alpha_mix =  0.700 |ddv_scf|^2 =  1.783E-07

      iter #   2 total cpu time :     3.4 secs   av.it.:   9.1
      thresh= 4.222E-05 alpha_mix =  0.700 |ddv_scf|^2 =  1.306E-07

      iter #   3 total cpu time :     3.4 secs   av.it.:   8.7
      thresh= 3.614E-05 alpha_mix =  0.700 |ddv_scf|^2 =  1.471E-10

      iter #   4 total cpu time :     3.5 secs   av.it.:   8.9
      thresh= 1.213E-06 alpha_mix =  0.700 |ddv_scf|^2 =  5.354E-12

     End of self-consistent calculation

     Convergence has been achieved 


     Representation #   9 mode #   9

     Self-consistent Calculation

      iter #   1 total cpu time :     3.5 secs   av.it.:   4.7
      thresh= 1.000E-02 alpha_mix =  0.700 |ddv_scf|^2 =  7.294E-07

      iter #   2 total cpu time :     3.5 secs   av.it.:   9.1
      thresh= 8.540E-05 alpha_mix =  0.700 |ddv_scf|^2 =  5.617E-07

      iter #   3 total cpu time :     3.6 secs   av.it.:   8.7
      thresh= 7.495E-05 alpha_mix =  0.700 |ddv_scf|^2 =  1.787E-10

      iter #   4 total cpu time :     3.6 secs   av.it.:   8.9
      thresh= 1.337E-06 alpha_mix =  0.700 |ddv_scf|^2 =  5.300E-12

     End of self-consistent calculation

     Convergence has been achieved 


     Representation #  10 mode #  10

     Self-consistent Calculation

      iter #   1 total cpu time :     3.7 secs   av.it.:   4.9
      thresh= 1.000E-02 alpha_mix =  0.700 |ddv_scf|^2 =  7.785E-07

      iter #   2 total cpu time :     3.7 secs   av.it.:   8.8
      thresh= 8.823E-05 alpha_mix =  0.700 |ddv_scf|^2 =  2.191E-07

      iter #   3 total cpu time :     3.7 secs   av.it.:   8.6
      thresh= 4.681E-05 alpha_mix =  0.700 |ddv_scf|^2 =  5.047E-11

     End of self-consistent calculation

     Convergence has been achieved 


     Representation #  11 mode #  11

     Self-consistent Calculation

      iter #   1 total cpu time :     3.8 secs   av.it.:   5.1
      thresh= 1.000E-02 alpha_mix =  0.700 |ddv_scf|^2 =  4.805E-06

      iter #   2 total cpu time :     3.8 secs   av.it.:   9.0
      thresh= 2.192E-04 alpha_mix =  0.700 |ddv_scf|^2 =  9.282E-06

      iter #   3 total cpu time :     3.9 secs   av.it.:   8.1
      thresh= 3.047E-04 alpha_mix =  0.700 |ddv_scf|^2 =  1.495E-08

      iter #   4 total cpu time :     3.9 secs   av.it.:   8.9
      thresh= 1.223E-05 alpha_mix =  0.700 |ddv_scf|^2 =  4.074E-11

     End of self-consistent calculation

     Convergence has been achieved 


     Representation #  12 mode #  12

     Self-consistent Calculation

      iter #   1 total cpu time :     3.9 secs   av.it.:   5.0
      thresh= 1.000E-02 alpha_mix =  0.700 |ddv_scf|^2 =  7.590E-07

      iter #   2 total cpu time :     4.0 secs   av.it.:   9.2
      thresh= 8.712E-05 alpha_mix =  0.700 |ddv_scf|^2 =  8.101E-07

      iter #   3 total cpu time :     4.0 secs   av.it.:   8.4
      thresh= 9.001E-05 alpha_mix =  0.700 |ddv_scf|^2 =  3.246E-08

      iter #   4 total cpu time :     4.1 secs   av.it.:   8.6
      thresh= 1.802E-05 alpha_mix =  0.700 |ddv_scf|^2 =  4.611E-11

     End of self-consistent calculation

     Convergence has been achieved 
 
     Number of q in the star =    3
     List of q in the star:
          1   0.000000000  -0.577350269   0.000000000
          2   0.500000000   0.288675135   0.000000000
          3  -0.500000000   0.288675135   0.000000000

     Diagonalizing the dynamical matrix

     q = (    0.000000000  -0.577350269   0.000000000 ) 

 **************************************************************************
     freq (    1) =       2.870316 [THz] =      95.743423 [cm-1]
     freq (    2) =       3.521455 [THz] =     117.463080 [cm-1]
     freq (    3) =       5.122774 [THz] =     170.877339 [cm-1]
     freq (    4) =       6.314862 [THz] =     210.641109 [cm-1]
     freq (    5) =       9.158371 [THz] =     305.490371 [cm-1]
     freq (    6) =       9.911563 [THz] =     330.614165 [cm-1]
     freq (    7) =      11.551681 [THz] =     385.322618 [cm-1]
     freq (    8) =      11.698049 [THz] =     390.204919 [cm-1]
     freq (    9) =      12.630920 [THz] =     421.322147 [cm-1]
     freq (   10) =      12.915051 [THz] =     430.799738 [cm-1]
     freq (   11) =      13.725078 [THz] =     457.819329 [cm-1]
     freq (   12) =      13.731549 [THz] =     458.035159 [cm-1]
 **************************************************************************

     Mode symmetry, D_2h (mmm)  point group:

     freq (   1-   1) =         95.7  [cm-1]   --> B_3g               
     freq (   2-   2) =        117.5  [cm-1]   --> B_1g               
     freq (   3-   3) =        170.9  [cm-1]   --> B_2g               
     freq (   4-   4) =        210.6  [cm-1]   --> B_1u               
     freq (   5-   5) =        305.5  [cm-1]   --> B_3u               
     freq (   6-   6) =        330.6  [cm-1]   --> A_g                
     freq (   7-   7) =        385.3  [cm-1]   --> B_2g               
     freq (   8-   8) =        390.2  [cm-1]   --> B_1u               
     freq (   9-   9) =        421.3  [cm-1]   --> A_g                
     freq (  10-  10) =        430.8  [cm-1]   --> B_2u               
     freq (  11-  11) =        457.8  [cm-1]   --> A_u                
     freq (  12-  12) =        458.0  [cm-1]   --> B_3u               
 
     Number of q in the star =    3
     List of q in the star:
          1   0.000000000  -0.577350269   0.000000000
          2   0.500000000   0.288675135   0.000000000
          3  -0.500000000   0.288675135   0.000000000
       Writing drho for q = (  0.000000 -0.577350  0.000000) on file "drho.0_-1o2_0"
       Writing drho for q = (  0.500000  0.288675  0.000000) on file "drho.1o2_0_0"
       Writing drho for q = ( -0.500000  0.288675  0.000000) on file "drho.-1o2_1o2_0"
 
     init_run     :      0.01s CPU      0.01s WALL (       1 calls)
     electrons    :      0.22s CPU      0.22s WALL (       1 calls)

     Called by init_run:
     wfcinit      :      0.00s CPU      0.00s WALL (       1 calls)
     potinit      :      0.00s CPU      0.00s WALL (       1 calls)
     hinit0       :      0.00s CPU      0.00s WALL (       1 calls)

     Called by electrons:
     c_bands      :      0.22s CPU      0.22s WALL (       1 calls)
     v_of_rho     :      0.00s CPU      0.00s WALL (       2 calls)

     Called by c_bands:
     init_us_2    :      0.01s CPU      0.01s WALL (     754 calls)
     init_us_2:cp :      0.01s CPU      0.01s WALL (     754 calls)
     cegterg      :      0.20s CPU      0.20s WALL (      14 calls)

     Called by *egterg:
     cdiaghg      :      0.07s CPU      0.07s WALL (     260 calls)
     h_psi        :      1.58s CPU      1.66s WALL (    5636 calls)
     g_psi        :      0.00s CPU      0.00s WALL (     246 calls)

     Called by h_psi:
     h_psi:calbec :      0.07s CPU      0.07s WALL (    5636 calls)
     vloc_psi     :      1.48s CPU      1.55s WALL (    5636 calls)
     add_vuspsi   :      0.02s CPU      0.02s WALL (    5636 calls)

     General routines
     calbec       :      0.11s CPU      0.12s WALL (   11648 calls)
     fft          :      0.02s CPU      0.04s WALL (     290 calls)
     ffts         :      0.02s CPU      0.03s WALL (     420 calls)
     fftw         :      1.69s CPU      1.78s WALL (   95376 calls)
     davcio       :      0.04s CPU      0.06s WALL (    3516 calls)
 
     Parallel routines
 
     PHONON       :      3.67s CPU      4.15s WALL

     INITIALIZATION: 
     phq_setup    :      0.00s CPU      0.00s WALL (       2 calls)
     phq_init     :      0.01s CPU      0.02s WALL (       2 calls)
 
     phq_init     :      0.01s CPU      0.02s WALL (       2 calls)
     init_vloc    :      0.00s CPU      0.00s WALL (       2 calls)
     init_us_1    :      0.00s CPU      0.00s WALL (       2 calls)
     init_us_2    :      0.01s CPU      0.01s WALL (     754 calls)
 
     DYNAMICAL MATRIX:
     dynmat0      :      0.00s CPU      0.01s WALL (       2 calls)
     dynmat_us    :      0.00s CPU      0.00s WALL (       2 calls)
     d2ionq       :      0.00s CPU      0.00s WALL (       2 calls)
     phqscf       :      2.83s CPU      3.14s WALL (       2 calls)
     dynmatrix    :      0.00s CPU      0.01s WALL (       2 calls)
 
     phqscf       :      2.83s CPU      3.14s WALL (       2 calls)
     solve_linter :      2.79s CPU      3.07s WALL (      20 calls)
     sth_kernel   :      1.92s CPU      2.03s WALL (      75 calls)
     h_prec       :      0.01s CPU      0.01s WALL (     450 calls)
     apply_dpot_b :      0.13s CPU      0.14s WALL (     370 calls)
     ortho        :      0.01s CPU      0.01s WALL (     526 calls)
     cgsolve      :      1.65s CPU      1.73s WALL (     526 calls)
     incdrhoscf   :      0.18s CPU      0.19s WALL (     514 calls)
                                        0.00s GPU  (     514 calls)
     dv_of_drho   :      0.01s CPU      0.01s WALL (      94 calls)
     mix_pot      :      0.01s CPU      0.06s WALL (      75 calls)
     drhodv       :      0.03s CPU      0.03s WALL (      20 calls)
     psymdvscf    :      0.79s CPU      0.79s WALL (      71 calls)
 
     dvqpsi_us    :      0.14s CPU      0.15s WALL (     180 calls)
                                        0.00s GPU  (     180 calls)
     dvqpsi_us_on :      0.01s CPU      0.01s WALL (     180 calls)
 
     add_vuspsi   :      0.02s CPU      0.02s WALL (    5636 calls)
 
 
      General routines
     calbec       :      0.11s CPU      0.12s WALL (   11648 calls)
     fft          :      0.02s CPU      0.04s WALL (     290 calls)
     ffts         :      0.02s CPU      0.03s WALL (     420 calls)
     fftw         :      1.69s CPU      1.78s WALL (   95376 calls)
     davcio       :      0.04s CPU      0.06s WALL (    3516 calls)
     write_rec    :      0.02s CPU      0.14s WALL (      95 calls)
 
      Additional routines
     ch_psi       :      1.59s CPU      1.67s WALL (    5362 calls)
     last         :      0.11s CPU      0.11s WALL (    5362 calls)
     Hesh         :      0.00s CPU      0.00s WALL (    5362 calls)
     ch_psi_all_k :      0.10s CPU      0.10s WALL (    5362 calls)
                                        0.00s GPU  (    5362 calls)
     ch_psi_calbe :      0.04s CPU      0.04s WALL (    5362 calls)
                                        0.00s GPU  (    5362 calls)
     h_psi_bgrp   :      1.59s CPU      1.67s WALL (    5636 calls)
     h_psi        :      1.58s CPU      1.66s WALL (    5636 calls)
     h_psi:pot    :      1.57s CPU      1.65s WALL (    5636 calls)
     h_psi:calbec :      0.07s CPU      0.07s WALL (    5636 calls)
     s_psi_bgrp   :      0.01s CPU      0.01s WALL (   11250 calls)
 
 
     PHONON       :      3.67s CPU      4.15s WALL

 
   This run was terminated on:  10:50:39   9Jun2025            

=------------------------------------------------------------------------------=
   JOB DONE.
=------------------------------------------------------------------------------=
